144
Lattice="14.846493247 1.873e-05 4.1829e-05 1.8758e-05 14.849502674 -0.000483218 4.1789e-05 -0.000483337 14.849700092" Properties=species:S:1:pos:R:3:forces:R:3 stress="-0.004364163044963588 -2.140837630177957e-06 1.8162791556320278e-06 -2.140837630177957e-06 -0.004369749195631253 4.98072428245484e-06 1.8162791556320278e-06 4.98072428245484e-06 -0.004365985565628346" free_energy=-965.29240507 energy=-965.29240507 pbc="T T T"
Si       3.43690000       1.40612000       5.86660000      -0.00005100       0.00013000       0.00052800
Si      10.86018000       8.83065000      13.29123000      -0.00004900       0.00007800       0.00054900
Si       3.43637000       5.73011000      13.29104000       0.00000300      -0.00056700      -0.00087400
Si      10.85959000      13.15511000       5.86597000       0.00010900      -0.00059800      -0.00083200
Si       3.43577000      13.15523000       8.96629000      -0.00065900       0.00058900      -0.00009200
Si      10.85898000       5.73073000       1.54169000      -0.00058000       0.00070500       0.00002600
Si       3.43633000       8.83071000       1.54127000      -0.00021200       0.00015700       0.00007200
Si      10.85958000       1.40573000       8.96638000      -0.00021100       0.00007200      -0.00003000
Si       5.59790000       3.56793000       1.54158000      -0.00034500      -0.00009500      -0.00049400
Si      13.02118000      10.99245000       8.96621000      -0.00030200      -0.00015400      -0.00053800
Si       1.27504000       5.73088000       3.70427000       0.00059400       0.00034800       0.00024700
Si       8.69832000      13.15541000      11.12891000       0.00054900       0.00028100       0.00024900
Si       1.27486000       3.56831000       8.96659000       0.00100900      -0.00012100       0.00052100
Si       8.69810000      10.99331000       1.54152000       0.00082300      -0.00012400       0.00054300
Si       5.59757000      13.15536000       3.70298000       0.00002900      -0.00070900       0.00003200
Si      13.02083000       5.73039000      11.12809000       0.00015600      -0.00058900       0.00003700
Si      13.02108000       3.56851000       5.86636000      -0.00017000      -0.00021900       0.00015500
Si       5.59786000      10.99302000      13.29096000      -0.00019100      -0.00024900       0.00026200
Si      13.02066000       8.83088000       3.70428000      -0.00047500       0.00131300       0.00016500
Si       5.59742000       1.40588000      11.12935000      -0.00059000       0.00131600       0.00015000
Si       8.69872000       3.56723000      13.29092000      -0.00064600      -0.00002000      -0.00036800
Si       1.27546000      10.99221000       5.86581000      -0.00061100      -0.00007900      -0.00043700
Si       8.69808000       1.40622000       3.70383000       0.00033600      -0.00008800      -0.00024600
Si       1.27486000       8.83072000      11.12841000       0.00035300      -0.00009200      -0.00016900
Si       3.43704000       5.73086000       1.54158000      -0.00018400       0.00014900      -0.00051800
Si      10.86032000      13.15538000       8.96621000      -0.00014400       0.00014000      -0.00050700
Si       3.43629000       1.40568000       8.96643000      -0.00038300       0.00062200       0.00059100
Si      10.85953000       8.83069000       1.54135000      -0.00043000       0.00080500       0.00062300
Si       3.43591000       8.83066000      13.29109000       0.00010300      -0.00024300      -0.00044300
Si      10.85913000       1.40615000       5.86650000       0.00009400      -0.00026700      -0.00044700
Si       3.43631000      13.15515000       5.86592000      -0.00039400       0.00005600       0.00008100
Si      10.85957000       5.73016000      13.29103000      -0.00038600       0.00004500       0.00011000
Si       1.27504000       3.56863000       5.86631000       0.00024900      -0.00021100       0.00095500
Si       8.69832000      10.99315000      13.29094000       0.00025300      -0.00023300       0.00102900
Si       5.59810000       1.40622000       3.70392000      -0.00009600      -0.00000900       0.00046800
Si      13.02138000       8.83074000      11.12855000      -0.00008400       0.00010000       0.00045300
Si       5.59721000       3.56703000      13.29113000      -0.00040200       0.00004800      -0.00116900
Si      13.02044000      10.99203000       5.86606000      -0.00034000       0.00005800      -0.00113700
Si       1.27502000       8.83094000       3.70411000      -0.00016200       0.00055700       0.00023300
Si       8.69828000       1.40596000      11.12923000      -0.00016700       0.00055900       0.00013700
Si       8.69815000       3.56794000       1.54144000       0.00017100      -0.00019300       0.00013000
Si       1.27493000      10.99244000       8.96603000       0.00017400      -0.00020100       0.00010500
Si       8.69850000      13.15527000       3.70297000       0.00046700      -0.00096000      -0.00087800
Si       1.27526000       5.73027000      11.12805000       0.00063400      -0.00078600      -0.00093500
Si      13.02089000       3.56838000       8.96675000       0.00077300      -0.00044100       0.00029400
Si       5.59764000      10.99336000       1.54164000       0.00076200      -0.00027300       0.00037100
Si      13.02102000       5.73074000       3.70422000      -0.00055300       0.00082600       0.00008000
Si       5.59780000      13.15524000      11.12881000      -0.00068300       0.00077600      -0.00001800
O        4.72218000       1.83865000       4.98976000       0.00056900       0.00082200      -0.00023800
O       12.14547000       9.26319000      12.41439000       0.00055700       0.00076000      -0.00032900
O        2.15167000       5.29654000      12.41335000       0.00003600      -0.00049000       0.00060600
O        9.57490000      12.72154000       4.98828000      -0.00005300      -0.00043600       0.00052600
O       12.14320000       5.29715000       2.41970000       0.00079500      -0.00044300       0.00024800
O        4.71998000      12.72163000       9.84430000       0.00068700      -0.00068500       0.00043100
O        2.15078000       9.26267000       2.41781000      -0.00009300       0.00053400      -0.00081100
O        9.57402000       1.83769000       9.84291000      -0.00021700       0.00052400      -0.00062500
O        4.72221000       4.85390000       1.97423000       0.00048500      -0.00044000       0.00068700
O       12.14550000      12.27844000       9.39888000       0.00035700      -0.00044400       0.00061100
O        1.70806000       4.85379000       4.98934000       0.00091900       0.00060900      -0.00024500
O        9.13135000      12.27831000      12.41398000       0.00088600       0.00065400      -0.00028100
O        2.15118000       2.28259000       9.39901000      -0.00011000      -0.00050700       0.00036500
O        9.57442000       9.70759000       1.97394000      -0.00000400      -0.00056200       0.00035000
O        5.16270000      12.27766000       2.41877000      -0.00113600       0.00076800      -0.00009900
O       12.58597000       4.85268000       9.84388000      -0.00107200       0.00086000      -0.00000100
O       12.14327000       2.28412000       5.43241000       0.00004400      -0.00006200      -0.00077400
O        4.72005000       9.70863000      12.85700000       0.00009300      -0.00003100      -0.00078100
O        5.16150000       2.28336000      12.41310000      -0.00102000      -0.00005700       0.00033900
O       12.58473000       9.70836000       4.98803000      -0.00100100      -0.00006700       0.00033100
O        2.15120000      12.27811000       5.43225000      -0.00011400       0.00068300      -0.00030100
O        9.57445000       4.85313000      12.85736000      -0.00011700       0.00065700      -0.00029800
O        9.13199000       2.28369000       2.41929000       0.00079300      -0.00026500      -0.00064000
O        1.70877000       9.70818000       9.84386000       0.00080400      -0.00021700      -0.00064300
O        5.16387000       2.28389000       2.41964000      -0.00079300      -0.00038100      -0.00042400
O       12.58715000       9.70842000       9.84427000      -0.00079700      -0.00039200      -0.00036500
O        9.13325000      12.27752000       2.41873000       0.00108500       0.00120000       0.00052300
O        1.71000000       4.85251000       9.84380000       0.00101900       0.00115600       0.00051500
O        9.13433000       2.28356000      12.41282000       0.00138100       0.00000900      -0.00009600
O        1.71107000       9.70854000       4.98771000       0.00136400       0.00004900      -0.00001900
O       12.58799000       4.85359000       4.98927000      -0.00047300       0.00046700       0.00020300
O        5.16476000      12.27810000      12.41387000      -0.00043400       0.00052600       0.00014000
O        2.15299000       2.28434000       5.43237000      -0.00039100       0.00000900      -0.00051900
O        9.57626000       9.70885000      12.85700000      -0.00042700       0.00002500      -0.00050700
O        2.15298000       5.29734000       2.41985000      -0.00050200      -0.00043100      -0.00003500
O        9.57625000      12.72187000       9.84448000      -0.00048600      -0.00043600      -0.00004300
O        4.72153000       4.85303000      12.85778000      -0.00003800       0.00058600      -0.00036500
O       12.14476000      12.27804000       5.43271000      -0.00009900       0.00063600      -0.00037400
O        2.15080000       9.26357000      12.41412000      -0.00020600       0.00092300       0.00010300
O        9.57402000       1.83907000       4.98954000      -0.00015000       0.00092400       0.00011100
O       12.14425000       2.28299000       9.39948000       0.00011500      -0.00045700       0.00077500
O        4.72102000       9.70795000       1.97436000      -0.00013600      -0.00059100       0.00082900
O       12.14459000       9.26314000       2.41835000       0.00014400       0.00043300      -0.00009100
O        4.72135000       1.83815000       9.84341000       0.00019700       0.00043900      -0.00004500
O        2.15060000      12.27831000       9.39912000       0.00000700      -0.00025800       0.00034800
O        9.57381000       4.85382000       1.97452000       0.00009600      -0.00026400       0.00036900
O        4.72120000      12.72185000       4.98844000       0.00025300      -0.00100900      -0.00038900
O       12.14445000       5.29686000      12.41354000       0.00022300      -0.00104400      -0.00034700
O        3.82520000       1.66393000       7.41664000      -0.00020600      -0.00013100      -0.00104000
O       11.24848000       9.08848000      14.84126000      -0.00022300      -0.00018300      -0.00102800
O        3.04812000       5.47216000      14.84126000       0.00010300      -0.00003600       0.00083600
O       10.47135000      12.89716000       7.41619000       0.00013400      -0.00000200       0.00083000
O        3.82435000      12.89707000       7.41618000       0.00015100      -0.00005400       0.00000300
O       11.24762000       5.47207000      14.84128000       0.00012800      -0.00008100      -0.00007300
O        3.04769000       9.08849000      14.84111000       0.00002900       0.00037500       0.00012300
O       10.47091000       1.66399000       7.41652000       0.00007300       0.00037800       0.00018300
O        7.14802000       3.95576000       1.79884000      -0.00055200      -0.00114500       0.00146700
O       14.57130000      11.38028000       9.22348000      -0.00053000      -0.00112200       0.00147100
O        1.53280000       7.28095000       4.09280000       0.00121100      -0.00059100      -0.00002300
O        8.95608000      14.70547000      11.51743000       0.00120800      -0.00057800      -0.00001000
O       14.57114000       3.18106000       9.22517000      -0.00154200       0.00087400       0.00010400
O        7.14789000      10.60606000       1.80007000      -0.00141500       0.00085400       0.00008100
O        5.34033000      14.70564000       3.31479000       0.00012600       0.00035000       0.00048000
O       12.76359000       7.28066000      10.73991000       0.00009100       0.00018300       0.00047200
O       14.57132000       3.18008000       5.60858000      -0.00020300      -0.00004700      -0.00020100
O        7.14811000      10.60459000      13.03317000      -0.00013100      -0.00005600      -0.00022900
O       12.76298000       7.28082000       4.09265000      -0.00028100      -0.00128900       0.00012600
O        5.33976000      14.70532000      11.51723000      -0.00027300      -0.00135900       0.00011900
O        7.14791000       3.95284000      13.03287000       0.00109900      -0.00059400      -0.00123100
O       14.57115000      11.37784000       5.60779000       0.00102400      -0.00060600      -0.00120400
O        8.95595000      14.70557000       3.31497000      -0.00000700       0.00098400       0.00053100
O        1.53271000       7.28057000      10.74004000       0.00002000       0.00095500       0.00052700
O        5.33946000       3.17869000      14.84130000       0.00056900       0.00036900       0.00116500
O       12.76269000      10.60370000       7.41624000       0.00056200       0.00037900       0.00115900
O        1.53258000       3.95685000       7.41652000       0.00056500      -0.00025300      -0.00120400
O        8.95586000      11.38137000      14.84115000       0.00059100      -0.00026000      -0.00128800
O        8.95677000       3.17904000      14.84112000      -0.00089600       0.00024000       0.00000100
O        1.53351000      10.60402000       7.41601000      -0.00089800       0.00023400       0.00009300
O       12.76325000       3.95664000       7.41657000      -0.00087300      -0.00071000      -0.00002300
O        5.34003000      11.38115000      14.84117000      -0.00085700      -0.00072400      -0.00017100
O        3.04825000      14.70551000       5.60831000       0.00045700      -0.00045000      -0.00069600
O       10.47153000       7.28053000      13.03342000       0.00041800      -0.00038300      -0.00067700
O       14.57130000       5.47320000       3.31571000       0.00005000      -0.00007400       0.00031800
O        7.14809000      12.89771000      10.74032000       0.00007400      -0.00007000       0.00026700
O        3.82434000       7.28045000      13.03326000       0.00000600       0.00069500      -0.00057600
O       11.24756000      14.70545000       5.60819000       0.00000600       0.00074400      -0.00055700
O        7.14810000       1.66446000       4.09180000      -0.00005700       0.00070200      -0.00039000
O       14.57138000       9.08898000      11.51643000      -0.00007400       0.00070700      -0.00036400
O        3.82570000       7.28089000       1.79878000      -0.00010600      -0.00008000       0.00030400
O       11.24898000      14.70541000       9.22341000      -0.00010900      -0.00006500       0.00029400
O       14.57106000       9.08953000       3.31787000       0.00069500       0.00043100       0.00109300
O        7.14782000       1.66453000      10.74294000       0.00080300       0.00044500       0.00109500
O        3.04731000      14.70530000       9.22357000      -0.00010900      -0.00093200       0.00061500
O       10.47052000       7.28081000       1.79895000      -0.00013000      -0.00113700       0.00068700
O        7.14804000      12.89709000       4.08973000      -0.00077100      -0.00184400      -0.00065100
O       14.57130000       5.47213000      11.51488000      -0.00112600      -0.00153700      -0.00060200
