144
Lattice="13.139013342 0.000233447 0.00083056 0.00023279 13.136820417 0.000461441 0.000852412 0.000460148 13.1281445" Properties=species:S:1:pos:R:3:forces:R:3 stress="-0.012491693949451495 -1.8350036830096777e-06 -9.67433914511905e-07 -1.8350036830096777e-06 -0.012486057866710821 1.3793735168202002e-06 -9.67433914511905e-07 1.3793735168202002e-06 -0.012492442930546601" free_energy=-963.79859503 energy=-963.79859503 pbc="T T T"
Si       2.76350000       0.71483000       4.70765000       0.00098200      -0.00016200       0.00153900
Si       9.33353000       7.28354000      11.27246000       0.00038800       0.00079000       0.00025300
Si       3.91980000       5.94919000      11.27063000       0.00026000      -0.00058100      -0.00058500
Si      10.48897000      12.51743000       4.70725000      -0.00137000       0.00057100       0.00070900
Si       2.76389000      12.51768000       8.42383000       0.00073200      -0.00028400      -0.00115000
Si       9.33288000       5.94914000       1.85998000       0.00001900      -0.00057100       0.00008700
Si       3.91835000       7.28343000       1.85900000      -0.00075600       0.00139200       0.00034400
Si      10.48816000       0.71535000       8.42330000      -0.00173200       0.00086300      -0.00132900
Si       4.76857000       2.75774000       0.66873000       0.00185100       0.00121600      -0.00039600
Si      11.33864000       9.32645000       7.23349000       0.00032100      -0.00009100       0.00108200
Si       0.72339000       4.75987000       2.70570000       0.00035800       0.00090700       0.00134500
Si       7.29339000      11.32862000       9.27044000       0.00209800      -0.00062100      -0.00014200
Si       1.91279000       3.90781000       7.23229000      -0.00002600       0.00006600       0.00062100
Si       8.48202000      10.47611000       0.66886000      -0.00082900      -0.00092700      -0.00026900
Si       5.95885000      11.32870000       3.86093000      -0.00095400      -0.00046000       0.00075500
Si      12.52868000       4.76058000      10.42525000      -0.00053800       0.00071200      -0.00052400
Si      11.33851000       3.90856000       5.89873000      -0.00082000      -0.00017500      -0.00036000
Si       4.76952000      10.47712000      12.46259000       0.00068500      -0.00153500       0.00019700
Si      12.52799000       8.47357000       2.70665000      -0.00026900      -0.00099700       0.00041500
Si       5.95878000       1.90525000       9.27004000      -0.00072500       0.00064100      -0.00051400
Si       8.48347000       2.75789000      12.46154000      -0.00066300       0.00051500      -0.00032200
Si       1.91368000       9.32596000       5.89733000       0.00070900      -0.00037100      -0.00071600
Si       7.29427000       1.90477000       3.85956000       0.00235400       0.00053600       0.00062100
Si       0.72527000       8.47331000      10.42350000       0.00081400      -0.00050900      -0.00095000
Si       2.76550000       4.75921000       0.66883000       0.00090900       0.00146700      -0.00003200
Si       9.33555000      11.32795000       7.23358000      -0.00013400       0.00020400       0.00101500
Si       3.91645000       1.90484000       7.23280000       0.00036800       0.00007900       0.00053700
Si      10.48567000       8.47312000       0.66944000      -0.00094500      -0.00090500      -0.00062900
Si       2.76732000       8.47375000      12.46103000       0.00000700      -0.00120200      -0.00052700
Si       9.33630000       1.90520000       5.89716000      -0.00061900       0.00017500      -0.00094800
Si       3.91723000      11.32790000       5.89879000      -0.00030600      -0.00057200      -0.00066500
Si      10.48706000       4.75979000      12.46308000      -0.00153000       0.00081100       0.00018900
Si       0.72336000       2.75501000       4.70733000       0.00009800       0.00094900       0.00136300
Si       7.29340000       9.32377000      11.27207000       0.00203100       0.00012000       0.00019200
Si       4.76926000       0.71656000       2.70690000       0.00130900      -0.00014000       0.00161200
Si      11.33930000       7.28529000       9.27171000      -0.00018400       0.00111100       0.00034900
Si       5.95953000       3.91054000      11.27058000      -0.00023400       0.00002900      -0.00079300
Si      12.52872000      10.47880000       4.70726000       0.00005500      -0.00115400       0.00028400
Si       1.91302000       7.28432000       3.85894000       0.00022600       0.00121600       0.00072000
Si       8.48280000       0.71625000      10.42321000      -0.00046100       0.00030400      -0.00065900
Si       7.29259000       3.91005000       1.85907000       0.00213500       0.00011600       0.00052000
Si       0.72366000      10.47855000       8.42298000       0.00087000      -0.00105200      -0.00059700
Si       8.48304000      12.51710000       2.70777000      -0.00086100      -0.00009900       0.00063600
Si       1.91380000       5.94879000       9.27122000       0.00007900      -0.00039600      -0.00035000
Si      12.52753000       2.75556000       8.42353000      -0.00118200       0.00071400      -0.00053000
Si       5.95771000       9.32365000       1.85924000      -0.00116100      -0.00005300       0.00076200
Si      11.33860000       5.94964000       3.85979000      -0.00058800      -0.00061600       0.00041600
Si       4.76960000      12.51817000      10.42367000       0.00078900       0.00017700      -0.00125300
O        3.22880000       0.97083000       3.16854000       0.00098900       0.00054700       0.00112000
O        9.79883000       7.53953000       9.73334000       0.00101500       0.00054600       0.00107900
O        3.45408000       5.69202000       9.73183000      -0.00055300      -0.00068100       0.00107600
O       10.02329000      12.26027000       3.16844000      -0.00027600      -0.00076200       0.00081200
O        9.79806000       5.69393000       3.39934000       0.00058400      -0.00039200      -0.00115100
O        3.22907000      12.26251000       9.96318000       0.00054200      -0.00052400      -0.00075300
O        3.45337000       7.54003000       3.39800000      -0.00016000       0.00092300      -0.00149900
O       10.02315000       0.97195000       9.96228000      -0.00029000       0.00103100      -0.00101000
O        3.22892000       3.21980000       0.92656000       0.00064400       0.00030500       0.00060800
O        9.79899000       9.78854000       7.49132000       0.00079400       0.00054100       0.00040000
O        0.97813000       3.21963000       3.16790000       0.00040000       0.00030400       0.00089700
O        7.54818000       9.78836000       9.73263000       0.00017700       0.00043300       0.00120800
O        3.45251000       3.44447000       7.48831000      -0.00068500      -0.00080600       0.00013400
O       10.02172000      10.01275000       0.92491000      -0.00050400      -0.00046700       0.00025300
O        5.70317000       9.78858000       3.39880000      -0.00045600       0.00083800      -0.00115800
O       12.27298000       3.22049000       9.96308000      -0.00048400       0.00083500      -0.00077600
O        9.79896000       3.44508000       5.64162000       0.00094900      -0.00050400      -0.00073100
O        3.22999000      10.01361000      12.20549000       0.00085600      -0.00018300      -0.00082700
O        5.70334000       3.44547000       9.73152000      -0.00073700      -0.00086100       0.00100900
O       12.27256000      10.01375000       3.16821000      -0.00043600      -0.00057200       0.00121400
O        3.45365000       9.78832000       5.64216000      -0.00012200       0.00115300      -0.00015400
O       10.02345000       3.22023000      12.20644000       0.00006300       0.00090400      -0.00026500
O        7.54973000       3.44492000       3.39784000       0.00075000      -0.00052000      -0.00123500
O        0.98077000      10.01345000       9.96176000       0.00090600      -0.00044800      -0.00105100
O        4.96912000       1.22452000       1.17434000      -0.00006500       0.00034400       0.00031400
O       11.53913000       7.79323000       7.73913000       0.00027500       0.00057200       0.00040100
O        8.28202000      12.00908000       1.17560000       0.00007400      -0.00079700       0.00073700
O        1.71278000       5.44078000       7.73904000      -0.00002000      -0.00122300       0.00070700
O        8.28283000       1.22495000      11.95527000       0.00028200       0.00023700      -0.00014100
O        1.71306000       7.79302000       5.39103000       0.00014100       0.00028200      -0.00052800
O       11.53893000       5.44142000       5.39209000      -0.00025400      -0.00049600      -0.00064900
O        4.96991000      12.00997000      11.95596000      -0.00032400      -0.00046100      -0.00025000
O        1.23055000       1.22206000       4.90549000       0.00116200       0.00103900       0.00068600
O        7.80057000       7.79080000      11.47029000       0.00078200       0.00143800       0.00087600
O        1.23188000       4.95899000       1.17326000       0.00042300      -0.00028200       0.00020300
O        7.80191000      11.52772000       7.73800000       0.00031100      -0.00005200       0.00054500
O        5.45348000       5.44398000      11.46765000      -0.00078200      -0.00061700       0.00016500
O       12.02260000      12.01221000       4.90442000      -0.00002000      -0.00079900      -0.00013600
O        1.23397000       8.27355000      11.95562000       0.00074300      -0.00019900      -0.00079900
O        7.80296000       1.70502000       5.39170000       0.00003800      -0.00036200      -0.00149300
O       12.02125000       1.22228000       8.22574000      -0.00044900       0.00104100      -0.00023200
O        5.45145000       7.79036000       1.66143000      -0.00085400       0.00100900      -0.00072600
O       12.01922000       8.27341000       1.17455000      -0.00056200       0.00008700       0.00101800
O        5.45002000       1.70509000       7.73793000      -0.00110500      -0.00009000       0.00090800
O        1.23068000      12.01159000       8.22581000       0.00032200      -0.00057600      -0.00045600
O        7.79964000       5.44309000       1.66195000       0.00028300      -0.00074600      -0.00053200
O        5.45062000      11.52752000       5.39351000      -0.00040800       0.00050300      -0.00099700
O       12.02044000       4.95937000      11.95783000      -0.00015200       0.00054600      -0.00095300
O        3.79452000       1.54643000       5.66184000       0.00037600      -0.00083500       0.00022800
O       10.36455000       8.11512000      12.22661000       0.00119400      -0.00008700       0.00181200
O        2.89038000       5.11685000      12.22595000      -0.00064200      -0.00064400       0.00191900
O        9.45949000      11.68511000       5.66257000       0.00032000       0.00019300       0.00002400
O        3.79476000      11.68503000       7.47007000      -0.00018800       0.00067000      -0.00002000
O       10.36372000       5.11648000       0.90623000       0.00051700       0.00001500      -0.00136100
O        2.88854000       8.11546000       0.90390000      -0.00128000      -0.00016800      -0.00157400
O        9.45834000       1.54737000       7.46816000      -0.00059100      -0.00073900      -0.00030200
O        5.72147000       3.78905000       1.50169000      -0.00110900      -0.00037200      -0.00075300
O       12.29153000      10.35775000       8.06642000       0.00054900       0.00040900      -0.00017700
O        1.55485000       5.71333000       3.73766000       0.00005400      -0.00108000       0.00013200
O        8.12485000      12.28207000      10.30239000       0.00064000       0.00044900       0.00086600
O        0.95959000       2.87624000       8.06448000      -0.00107900       0.00000400       0.00000600
O        7.52879000       9.44454000       1.50105000      -0.00047800       0.00039900      -0.00033800
O        5.12786000      12.28247000       2.82908000      -0.00037100       0.00178500      -0.00149900
O       11.69769000       5.71441000       9.39342000       0.00040400      -0.00035500      -0.00015700
O       12.29159000       2.87631000       5.06732000       0.00132700      -0.00058500      -0.00004400
O        5.72266000       9.44486000      11.63119000      -0.00105000       0.00038400       0.00098800
O       11.69651000       7.52089000       3.73929000      -0.00035300      -0.00000800       0.00028000
O        5.12731000       0.95262000      10.30269000      -0.00109900      -0.00184400       0.00109900
O        7.53058000       3.78852000      11.62798000       0.00003000      -0.00026700       0.00033600
O        0.96077000      10.35660000       5.06385000      -0.00141400       0.00051000      -0.00056500
O        8.12595000       0.95183000       2.82728000       0.00082600      -0.00159500      -0.00111200
O        1.55690000       7.52032000       9.39121000       0.00049500      -0.00051400      -0.00065200
O        5.12659000       2.88123000      12.22565000      -0.00097600      -0.00100600       0.00239900
O       11.69580000       9.44939000       5.66230000      -0.00002800       0.00021700       0.00021500
O        1.55470000       3.78685000       5.66106000      -0.00099800       0.00037300       0.00087700
O        8.12479000      10.35560000      12.22575000      -0.00026400       0.00111400       0.00178300
O        8.12413000       2.87968000       0.90414000       0.00010000      -0.00040000      -0.00103100
O        1.55524000       9.44817000       7.46807000      -0.00038800       0.00016800      -0.00006800
O       11.69503000       3.78731000       7.47035000      -0.00026400      -0.00018500      -0.00005500
O        5.12522000      10.35538000       0.90609000      -0.00137500       0.00052600      -0.00177300
O        2.88562000      12.28063000       5.06609000      -0.00087200       0.00155900       0.00002700
O        9.45541000       5.71254000      11.63040000       0.00000200      -0.00027600       0.00081700
O       12.29146000       5.11850000       2.82710000       0.00158400       0.00041400      -0.00089600
O        5.72248000      11.68698000       9.39099000      -0.00062700       0.00116800       0.00039300
O        3.79770000       7.52046000      11.62766000       0.00030100      -0.00035200       0.00001400
O       10.36665000       0.95192000       5.06380000       0.00108300      -0.00194400      -0.00069100
O        5.72288000       1.54788000       3.73895000      -0.00120200      -0.00041700      -0.00116500
O       12.29285000       8.11668000      10.30374000       0.00046700       0.00036700      -0.00015700
O        3.79616000       5.71237000       1.50212000      -0.00001800      -0.00052300      -0.00045500
O       10.36620000      12.28109000       8.06686000       0.00063000       0.00074700       0.00008800
O        0.96017000       8.11518000       2.82593000      -0.00117400       0.00039400      -0.00058400
O        7.52996000       1.54710000       9.39016000       0.00007400      -0.00020400       0.00011000
O        2.88491000       0.95213000       8.06562000      -0.00004400      -0.00132200       0.00011700
O        9.45413000       7.52040000       1.50229000       0.00019000      -0.00024000      -0.00024600
O        7.53008000      11.68679000       3.74119000       0.00025200       0.00023800       0.00016700
O        0.96091000       5.11845000      10.30465000      -0.00089400      -0.00038600       0.00079200
