144
Lattice="13.257987389 0.003918841 0.003989501 0.003919271 13.258114358 0.002634059 0.00400025 0.002639411 13.265160296" Properties=species:S:1:pos:R:3:forces:R:3 stress="-0.009368193122494477 -7.595916606199926e-06 -2.6151923237450855e-06 -7.595916606199926e-06 -0.009363405884994925 -1.3107169164354844e-07 -2.6151923237450855e-06 -1.3107169164354844e-07 -0.00936758145460014" free_energy=-964.60517545 energy=-964.60517545 pbc="T T T"
Si       2.68331000       0.62053000       4.79476000      -0.00192900       0.00104100      -0.00021600
Si       9.31624000       7.25288000      11.43062000      -0.00125000       0.00023900       0.00034000
Si       3.79616000       5.84140000      11.42501000      -0.00023600       0.00047300       0.00051000
Si      10.42514000      12.47107000       4.79575000       0.00005500       0.00030100       0.00024900
Si       2.68658000      12.46736000       8.50313000      -0.00006800       0.00050800       0.00107200
Si       9.31159000       5.83894000       1.87122000       0.00083100       0.00051700       0.00020500
Si       3.79478000       7.24730000       1.86686000      -0.00057100      -0.00040100       0.00004900
Si      10.42380000       0.62149000       8.50017000       0.00038900       0.00011000       0.00066900
Si       4.69922000       2.67297000       0.71952000      -0.00089800       0.00072100      -0.00022100
Si      11.33214000       9.30533000       7.35543000       0.00007500       0.00102600      -0.00005200
Si       0.62817000       4.69093000       2.77522000       0.00106900      -0.00018700      -0.00002300
Si       7.26109000      11.32333000       9.41108000       0.00010000       0.00030300       0.00075000
Si       1.77690000       3.78776000       7.35106000      -0.00132700      -0.00076800      -0.00089300
Si       8.40588000      10.41747000       0.72180000      -0.00089100      -0.00046100      -0.00075300
Si       5.85137000      11.31840000       3.89165000       0.00074400      -0.00067700      -0.00042900
Si      12.48041000       4.69263000      10.52489000       0.00078200      -0.00104900       0.00028600
Si      11.32630000       3.79145000       5.94764000       0.00139400      -0.00171300      -0.00029600
Si       4.70126000      10.41988000      12.57953000       0.00053300      -0.00106700      -0.00081600
Si      12.47666000       8.40047000       2.77880000       0.00071800      -0.00019200      -0.00019800
Si       5.84776000       1.77083000       9.40808000       0.00039900      -0.00066700       0.00061200
Si       8.40816000       2.67626000      12.57542000       0.00059400      -0.00060300      -0.00148900
Si       1.77917000       9.30197000       5.94214000      -0.00020300      -0.00028200      -0.00033100
Si       7.25572000       1.76902000       3.88930000      -0.00040600      -0.00081700      -0.00029400
Si       0.63065000       8.39745000      10.52109000       0.00085900      -0.00030600       0.00072400
Si       2.68062000       4.69091000       0.71855000      -0.00030300       0.00033300       0.00067600
Si       9.31353000      11.32321000       7.35444000       0.00023700       0.00120300       0.00059300
Si       3.79460000       1.76860000       7.35229000      -0.00090000       0.00035000       0.00013200
Si      10.42353000       8.39830000       0.72301000       0.00002800       0.00038900       0.00047100
Si       2.68551000       8.39904000      12.57370000       0.00032900       0.00028900       0.00013300
Si       9.31057000       1.77060000       5.94184000       0.00130300      -0.00033800       0.00115500
Si       3.79926000      11.31862000       5.94682000      -0.00073300       0.00033900      -0.00048100
Si      10.42827000       4.69285000      12.58006000       0.00027900      -0.00036000      -0.00140400
Si       0.62939000       2.67549000       4.79452000       0.00044200      -0.00004400      -0.00145900
Si       7.26233000       9.30784000      11.43038000      -0.00037200       0.00052700      -0.00076800
Si       4.69944000       0.61972000       2.77576000      -0.00056200      -0.00004500      -0.00024400
Si      11.33236000       7.25203000       9.41158000       0.00083100      -0.00049500       0.00131800
Si       5.85098000       3.78803000      11.42645000      -0.00044100       0.00044900      -0.00013600
Si      12.47992000      10.41766000       4.79718000      -0.00044100       0.00133800      -0.00062300
Si       1.77781000       7.24807000       3.88689000       0.00002500      -0.00109200      -0.00118500
Si       8.40684000       0.62231000      10.52022000       0.00044700      -0.00057000      -0.00119700
Si       7.25581000       3.78545000       1.86867000      -0.00105400      -0.00016000      -0.00082300
Si       0.63080000      10.41386000       8.50051000       0.00000500       0.00048200       0.00079200
Si       8.40796000      12.46805000       2.77830000       0.00072300      -0.00194400      -0.00066300
Si       1.77902000       5.83835000       9.40749000      -0.00019300      -0.00098900       0.00041200
Si      12.47537000       2.67796000       8.50334000      -0.00035100      -0.00046500       0.00025900
Si       5.84634000       9.30376000       1.87004000      -0.00039700       0.00004500      -0.00042100
Si      11.32701000       5.84403000       3.89276000       0.00176800       0.00020500      -0.00023800
Si       4.70201000      12.47251000      10.52464000       0.00064200      -0.00022600       0.00052600
O        3.16898000       0.88409000       3.26344000       0.00193100       0.00012900       0.00015100
O        9.80192000       7.51642000       9.89930000       0.00165100       0.00019000       0.00012800
O        3.30952000       5.57362000       9.89492000      -0.00068100       0.00057100      -0.00033500
O        9.93850000      12.20336000       3.26565000      -0.00098900       0.00033300      -0.00020600
O        9.79776000       5.57744000       3.40259000       0.00028700      -0.00004700      -0.00005400
O        3.17275000      12.20592000      10.03451000       0.00029400       0.00000900      -0.00008000
O        3.30717000       7.51345000       3.39681000      -0.00008700      -0.00021200       0.00069400
O        9.93622000       0.88763000      10.03013000      -0.00021800      -0.00033500       0.00066300
O        3.16822000       3.16023000       0.98123000       0.00161200      -0.00021300       0.00041900
O        9.80115000       9.79257000       7.61725000       0.00161500      -0.00034900      -0.00005400
O        0.89275000       3.16053000       3.26300000      -0.00022800       0.00095800      -0.00048900
O        7.52561000       9.79293000       9.89888000       0.00010900       0.00072400      -0.00053300
O        3.30596000       3.29817000       7.61833000      -0.00048900       0.00001700       0.00131500
O        9.93494000       9.92789000       0.98906000      -0.00057700      -0.00034000       0.00119500
O        5.58427000       9.78923000       3.40160000       0.00029100       0.00053000       0.00040500
O       12.21336000       3.16344000      10.03489000       0.00002300       0.00038200       0.00005000
O        9.79749000       3.30141000       5.67932000       0.00110200      -0.00078300      -0.00113200
O        3.17244000       9.92987000      12.31124000       0.00127800      -0.00055200      -0.00127200
O        5.58475000       3.30126000       9.89620000       0.00022500      -0.00031900       0.00012900
O       12.21370000       9.93089000       3.26692000       0.00008600      -0.00016100       0.00043600
O        3.30984000       9.78943000       5.67948000      -0.00081400       0.00060200      -0.00069300
O        9.93884000       3.16367000      12.31271000      -0.00097200       0.00049200      -0.00048300
O        7.52142000       3.29817000       3.39877000      -0.00101200      -0.00018700       0.00058100
O        0.89632000       9.92663000      10.03065000      -0.00078700      -0.00007700       0.00007900
O        4.88296000       1.14580000       1.24789000       0.00035100       0.00003700       0.00075800
O       11.51593000       7.77813000       7.88374000      -0.00008400       0.00045100       0.00033400
O        8.22370000      11.94496000       1.24948000      -0.00020700      -0.00061500       0.00015600
O        1.59469000       5.31527000       7.87868000      -0.00007400      -0.00061200      -0.00017100
O        8.22511000       1.14870000      12.04816000       0.00010800       0.00097200      -0.00016400
O        1.59607000       7.77444000       5.41483000       0.00038600       0.00123700       0.00033400
O       11.50826000       5.31971000       5.42164000       0.00094800      -0.00072000      -0.00044200
O        4.88322000      11.94813000      12.05350000       0.00143100      -0.00077700      -0.00029100
O        1.15579000       1.14771000       4.97996000       0.00077300      -0.00119900      -0.00166800
O        7.78873000       7.78007000      11.61582000       0.00075600      -0.00121700      -0.00194000
O        1.15335000       4.87415000       1.24698000       0.00072200      -0.00017600      -0.00037600
O        7.78626000      11.50653000       7.88284000       0.00113300      -0.00040100      -0.00048000
O        5.32364000       5.31523000      11.61100000       0.00019100       0.00041300       0.00051200
O       11.95261000      11.94489000       4.98167000       0.00032700       0.00024500       0.00041800
O        1.15691000       8.21653000      12.04911000       0.00002400      -0.00020200      -0.00040200
O        7.78194000       1.58807000       5.41734000      -0.00005900       0.00025300      -0.00149900
O       11.95096000       1.14973000       8.31695000      -0.00032000       0.00022100       0.00091300
O        5.32194000       7.77553000       1.68362000      -0.00030400       0.00045400       0.00120400
O       11.95105000       8.21667000       1.25085000      -0.00142700      -0.00032700      -0.00028600
O        5.32211000       1.58700000       7.88015000      -0.00117600      -0.00028400      -0.00042100
O        1.15900000      11.94105000       8.31718000       0.00070300      -0.00075300       0.00162600
O        7.78402000       5.31262000       1.68525000       0.00056800      -0.00078300       0.00217200
O        5.32735000      11.50066000       5.42036000      -0.00145900      -0.00106100       0.00031000
O       11.95638000       4.87486000      12.05360000      -0.00158700      -0.00073000       0.00038100
O        3.71382000       1.42665000       5.77268000      -0.00154600       0.00073300       0.00076000
O       10.34674000       8.05900000      12.40857000      -0.00183800       0.00059600       0.00014700
O        2.76457000       5.03909000      12.40495000       0.00123600       0.00078400      -0.00037800
O        9.39356000      11.66871000       5.77566000       0.00100200       0.00062100       0.00039200
O        3.71739000      11.65979000       7.52660000      -0.00028800       0.00036100      -0.00070800
O       10.34238000       5.03134000       0.89467000      -0.00096900       0.00125600       0.00086600
O        2.76435000       8.05080000       0.88710000       0.00034500       0.00027700       0.00049200
O        9.39342000       1.42502000       7.52042000      -0.00033300       0.00089800      -0.00082200
O        5.67632000       3.70424000       1.52570000       0.00200100       0.00070700       0.00114500
O       12.30932000      10.33659000       8.16155000       0.00032800      -0.00021800      -0.00015800
O        1.43489000       5.66874000       3.80510000       0.00031100       0.00096200       0.00075500
O        8.06781000      12.30110000      10.44103000      -0.00016900       0.00025600       0.00020000
O        0.79590000       2.75807000       8.15371000      -0.00075700      -0.00019900      -0.00044900
O        7.42486000       9.38778000       1.52443000      -0.00100900      -0.00032000      -0.00021000
O        5.04722000      12.29877000       2.86215000       0.00090400       0.00102000       0.00043600
O       11.67625000       5.67297000       9.49539000       0.00035000       0.00200300      -0.00000900
O       12.30855000       2.76337000       5.14382000      -0.00014500      -0.00090400       0.00060000
O        5.68349000       9.39178000      11.77573000       0.00082300      -0.00127400       0.00013200
O       11.67012000       7.42319000       3.80943000       0.00027500      -0.00064000       0.00007500
O        5.04127000       0.79352000      10.43873000       0.00017500       0.00027900      -0.00021900
O        7.43068000       3.70719000      11.76897000      -0.00022300      -0.00119100      -0.00002900
O        0.80163000      10.33285000       5.13571000      -0.00020200      -0.00086500       0.00000600
O        8.06075000       0.78887000       2.86042000      -0.00175900       0.00041700       0.00010700
O        1.43571000       7.41731000       9.49222000      -0.00126900      -0.00064700      -0.00062500
O        5.04796000       2.75643000      12.40575000       0.00078400       0.00114500       0.00021200
O       11.67683000       9.38616000       5.77649000       0.00052800       0.00066100       0.00043300
O        1.43681000       3.70621000       5.77112000       0.00003500      -0.00026400       0.00070600
O        8.06976000      10.33854000      12.40701000       0.00015900      -0.00028300       0.00086300
O        8.05935000       2.75418000       0.88929000       0.00009000       0.00064300       0.00168800
O        1.43438000       9.38257000       7.52121000       0.00040100       0.00024900       0.00005100
O       11.66638000       3.70826000       7.52761000      -0.00072100       0.00025600      -0.00074600
O        5.03735000      10.33408000       0.89432000      -0.00018900      -0.00001600      -0.00010700
O        2.77071000      12.29961000       5.14205000      -0.00032200      -0.00111600       0.00017600
O        9.39973000       5.67383000      11.77530000      -0.00073300       0.00013000      -0.00033600
O       12.30709000       5.03859000       2.86395000      -0.00065100       0.00162300       0.00017400
O        5.68200000      11.66712000       9.49573000       0.00071700       0.00130800      -0.00052700
O        3.71470000       7.42164000      11.76517000      -0.00058700       0.00035300      -0.00089600
O       10.33978000       0.79319000       5.13331000      -0.00131900       0.00091300      -0.00045600
O        5.67650000       1.42592000       3.80676000       0.00138900       0.00129100       0.00046200
O       12.30945000       8.05827000      10.44258000      -0.00036100       0.00051600      -0.00006300
O        3.71259000       5.66791000       1.52398000      -0.00012700       0.00062900       0.00088900
O       10.34551000      12.30023000       8.15985000      -0.00051000      -0.00035200       0.00045500
O        0.79779000       8.05248000       2.85722000      -0.00049500      -0.00113400      -0.00142400
O        7.42688000       1.42676000       9.49055000      -0.00088200      -0.00086100      -0.00195700
O        2.76451000       0.78811000       8.15526000      -0.00045900      -0.00009800      -0.00025600
O        9.39347000       7.41782000       1.52601000      -0.00088800      -0.00087100       0.00000700
O        7.43077000      11.66056000       3.80815000      -0.00047800      -0.00053500       0.00007800
O        0.80182000       5.03087000      10.43736000      -0.00007700      -0.00015700      -0.00010000
