144
Lattice="13.235806395 0.000783614 0.000940966 0.000775355 13.238889119 -0.001823732 0.000940029 -0.001832001 13.238808003" Properties=species:S:1:pos:R:3:forces:R:3 stress="-0.010013128260471994 1.1659139047149925e-05 1.4374195516909142e-05 1.1659139047149925e-05 -0.010008653098428737 0.0 1.4374195516909142e-05 0.0 -0.010001069664840788" free_energy=-964.47756216 energy=-964.47756216 pbc="T T T"
Si       2.73335000       0.74061000       4.76736000       0.00243900       0.00176700       0.00019200
Si       9.35211000       7.35953000      11.38633000       0.00190400       0.00191700      -0.00051200
Si       3.85378000       5.96142000      11.38541000       0.00060900       0.00154400      -0.00089000
Si      10.47160000      12.58216000       4.76555000       0.00022100       0.00178000      -0.00003400
Si       2.73335000      12.58323000       8.47581000      -0.00147200       0.00463400      -0.00064300
Si       9.35040000       5.96512000       1.85778000      -0.00176800       0.00335600       0.00058400
Si       3.85406000       7.36122000       1.85562000       0.00095900       0.00029500       0.00123200
Si      10.47205000       0.74125000       8.47641000       0.00070400      -0.00022400       0.00089300
Si       4.74852000       2.79258000       0.70070000      -0.00045500      -0.00194800      -0.00066500
Si      11.36730000       9.41148000       7.31965000      -0.00095600      -0.00192100       0.00027400
Si       0.68392000       4.80818000       2.75208000       0.00112500       0.00150700       0.00006700
Si       7.30268000      11.42711000       9.37105000       0.00196300       0.00116500      -0.00068300
Si       1.83918000       3.91202000       7.31848000       0.00237700      -0.00049100       0.00172600
Si       8.45702000      10.53277000       0.69864000       0.00124400      -0.00065600       0.00112300
Si       5.90467000      11.42945000       3.87078000       0.00045000      -0.00105600      -0.00196100
Si      12.52265000       4.80948000      10.49158000       0.00120100      -0.00114300      -0.00263600
Si      11.36534000       3.91172000       5.92407000      -0.00146200      -0.00088100       0.00321900
Si       4.74829000      10.52986000      12.54209000      -0.00128800      -0.00146300       0.00361500
Si      12.52198000       8.51488000       2.75324000       0.00013800       0.00098000      -0.00138400
Si       5.90416000       1.89413000       9.37309000      -0.00027900       0.00154200      -0.00233700
Si       8.45798000       2.79286000      12.54247000      -0.00110800      -0.00117800       0.00045600
Si       1.83999000       9.41283000       5.92167000      -0.00079900      -0.00152700       0.00101400
Si       7.30156000       1.89643000       3.87059000      -0.00109000       0.00055500       0.00137200
Si       0.68452000       8.51458000      10.48861000      -0.00169900      -0.00040600       0.00128200
Si       2.73335000       4.80912000       0.69995000       0.00285900      -0.00062700       0.00064200
Si       9.35212000      11.42803000       7.31890000       0.00201100      -0.00062900       0.00137100
Si       3.85281000       1.89450000       7.32141000       0.00188200       0.00247700       0.00092800
Si      10.47065000       8.51526000       0.70157000       0.00105100       0.00173100       0.00098900
Si       2.73425000       8.51353000      12.54046000      -0.00072200      -0.00026700       0.00343600
Si       9.35130000       1.89538000       5.92244000      -0.00083600       0.00035900       0.00348100
Si       3.85367000      11.42923000       5.92144000      -0.00006300      -0.00024200       0.00050600
Si      10.47165000       4.80926000      12.54223000      -0.00032200       0.00004200       0.00070800
Si       0.68310000       2.79287000       4.76692000       0.00056000       0.00028800       0.00129400
Si       7.30186000       9.41179000      11.38589000       0.00086600       0.00016600       0.00053100
Si       4.74766000       0.74124000       2.75122000       0.00041400       0.00010300      -0.00190200
Si      11.36642000       7.36016000       9.37019000       0.00035900       0.00031700      -0.00178600
Si       5.90547000       3.91017000      11.38655000      -0.00078000      -0.00218800      -0.00179300
Si      12.52329000      10.53091000       4.76670000       0.00001100      -0.00251900      -0.00129800
Si       1.83998000       7.36049000       3.87171000       0.00005600       0.00149100      -0.00043900
Si       8.45797000       0.74054000      10.49250000      -0.00034200       0.00091300      -0.00120600
Si       7.30009000       3.91339000       1.85740000      -0.00314000       0.00015600       0.00077800
Si       0.68304000      10.53152000       8.47542000      -0.00288200       0.00009800       0.00075100
Si       8.45796000      12.58414000       2.74940000      -0.00078400      -0.00007800      -0.00218000
Si       1.84013000       5.96339000       9.36925000      -0.00020400      -0.00025200      -0.00246700
Si      12.52235000       2.79331000       8.47664000       0.00123600      -0.00233700       0.00003300
Si       5.90438000       9.41328000       1.85583000       0.00073500      -0.00244700       0.00106900
Si      11.36603000       5.96344000       3.87323000      -0.00052300       0.00380700       0.00063500
Si       4.74899000      12.58157000      10.49125000      -0.00011300       0.00433700      -0.00016300
O        3.21664000       1.00721000       3.23596000      -0.00195400      -0.00085900      -0.00049000
O        9.83540000       7.62614000       9.85493000      -0.00206400      -0.00092700      -0.00034000
O        3.37105000       5.69636000       9.85360000       0.00256400       0.00133100      -0.00093800
O        9.98887000      12.31709000       3.23375000       0.00261300       0.00131200      -0.00103000
O        9.83454000       5.69949000       3.38899000      -0.00117100       0.00030200       0.00173500
O        3.21749000      12.31762000      10.00700000      -0.00070200       0.00030600       0.00247800
O        3.37097000       7.62673000       3.38726000       0.00062400      -0.00123000       0.00204900
O        9.98896000       1.00676000      10.00804000       0.00055900      -0.00116400       0.00229800
O        3.21693000       3.27728000       0.96331000      -0.00119900       0.00024600      -0.00148200
O        9.83569000       9.89619000       7.58225000      -0.00039100      -0.00038900      -0.00147900
O        0.94763000       3.27621000       3.23524000      -0.00131200      -0.00056900      -0.00215300
O        7.56640000       9.89513000       9.85421000      -0.00139600      -0.00073100      -0.00184300
O        3.37029000       3.42697000       7.58348000       0.00103800       0.00023400      -0.00107200
O        9.98811000      10.04774000       0.96363000       0.00174700      -0.00030900      -0.00097400
O        5.64142000       9.89733000       3.38765000       0.00176400       0.00082000       0.00260000
O       12.25940000       3.27735000      10.00843000       0.00173400       0.00151100       0.00348500
O        9.83412000       3.42741000       5.65839000       0.00068700       0.00078600       0.00102000
O        3.21707000      10.04555000      12.27642000       0.00080700       0.00102700       0.00096100
O        5.63929000       3.42620000       9.85526000       0.00093000       0.00141800       0.00045600
O       12.25711000      10.04694000       3.23541000       0.00084400       0.00142100       0.00026700
O        3.37143000       9.89699000       5.65804000       0.00178800       0.00042700       0.00117600
O        9.98942000       3.27703000      12.27883000       0.00179300       0.00026000       0.00109300
O        7.56530000       3.42881000       3.38864000      -0.00038000       0.00013600       0.00183500
O        0.94825000      10.04694000      10.00666000      -0.00025400       0.00069000       0.00165600
O        4.93328000       1.26314000       1.22213000      -0.00001800      -0.00070300       0.00025000
O       11.55206000       7.88203000       7.84110000      -0.00015800      -0.00015200      -0.00017100
O        8.27202000      12.06199000       1.22053000      -0.00075900       0.00193200       0.00002700
O        1.65420000       5.44124000       7.84038000      -0.00077500       0.00183200      -0.00004400
O        8.27293000       1.26328000      12.02138000      -0.00026700       0.00037800       0.00190900
O        1.65494000       7.88324000       5.40060000      -0.00028000       0.00022000       0.00153300
O       11.55098000       5.44089000       5.40221000       0.00084900       0.00002600       0.00118100
O        4.93393000      12.05903000      12.02023000       0.00084100       0.00030700       0.00115000
O        1.20502000       1.26398000       4.95423000      -0.00205100      -0.00042200      -0.00002200
O        7.82378000       7.88290000      11.57320000      -0.00185000      -0.00060800       0.00002500
O        1.20439000       4.99416000       1.22254000      -0.00246400       0.00105900       0.00027500
O        7.82316000      11.61307000       7.84150000      -0.00232800       0.00102400       0.00051200
O        5.38237000       5.43874000      11.57292000       0.00065500       0.00110500       0.00061400
O       12.00019000      12.05947000       4.95309000       0.00043700       0.00141200       0.00057800
O        1.20523000       8.32727000      12.01813000       0.00056500      -0.00113500      -0.00002500
O        7.82228000       1.70913000       5.40010000       0.00044900      -0.00119800      -0.00005100
O       12.00096000       1.26385000       8.29052000       0.00208000      -0.00022600       0.00037100
O        5.38297000       7.88382000       1.66973000       0.00190700      -0.00023600       0.00038900
O       11.99917000       8.32777000       1.22458000      -0.00057600      -0.00025500       0.00066200
O        5.38134000       1.70701000       7.84442000      -0.00020500      -0.00027500       0.00117100
O        1.20433000      12.06084000       8.29040000      -0.00096700       0.00111200      -0.00084000
O        7.82137000       5.44272000       1.67238000      -0.00087500       0.00114800      -0.00086700
O        5.38282000      11.61576000       5.39983000       0.00040700       0.00061900       0.00126400
O       12.00080000       4.99579000      12.02063000       0.00043800       0.00059100       0.00141600
O        3.76487000       1.54719000       5.74379000      -0.00110500      -0.00095000      -0.00296600
O       10.38363000       8.16610000      12.36275000      -0.00070200      -0.00050800      -0.00196700
O        2.82307000       5.15322000      12.36092000      -0.00156600       0.00047400      -0.00040600
O        9.44087000      11.77397000       5.74109000      -0.00098700       0.00104000      -0.00170000
O        3.76341000      11.77559000       7.49919000       0.00202800      -0.00095700      -0.00144500
O       10.38045000       5.15747000       0.88118000       0.00230500      -0.00120600      -0.00189700
O        2.82434000       8.17027000       0.87965000      -0.00134900       0.00011600      -0.00279900
O        9.44233000       1.55029000       7.50043000      -0.00130900       0.00007900      -0.00261500
O        5.72215000       3.82209000       1.51270000      -0.00017200       0.00033800      -0.00001800
O       12.34092000      10.44100000       8.13166000      -0.00066300       0.00015700      -0.00024300
O        1.49601000       5.78226000       3.78148000      -0.00190400      -0.00329100       0.00002000
O        8.11476000      12.40117000      10.40045000      -0.00160000      -0.00246200       0.00033000
O        0.86389000       2.88273000       8.12856000       0.00048200      -0.00138200      -0.00015400
O        7.48171000       9.50348000       1.50872000       0.00125600      -0.00108800      -0.00047600
O        5.09243000      12.40193000       2.84011000       0.00018700      -0.00205400      -0.00015400
O       11.71042000       5.78196000       9.46090000       0.00032700      -0.00254500       0.00003700
O       12.34115000       2.88265000       5.11396000      -0.00136400      -0.00050600       0.00011700
O        5.72411000       9.50079000      11.73198000      -0.00194700      -0.00035700       0.00032100
O       11.71175000       7.54132000       3.78433000      -0.00063600      -0.00105500       0.00196400
O        5.09393000       0.92059000      10.40417000      -0.00111500      -0.00225800       0.00242600
O        7.48376000       3.82128000      11.72987000       0.00203800       0.00073400       0.00084600
O        0.86580000      10.44124000       5.10908000       0.00102900       0.00108200       0.00045000
O        8.11385000       0.92369000       2.84031000       0.00032700       0.00174200      -0.00160200
O        1.49680000       7.54182000       9.45833000       0.00011200       0.00232800      -0.00138100
O        5.09778000       2.87935000      12.36231000       0.00070900      -0.00004800      -0.00067700
O       11.71563000       9.50007000       5.74247000       0.00082300       0.00017200      -0.00130700
O        1.49405000       3.82315000       5.74068000      -0.00144900      -0.00059200      -0.00452000
O        8.11281000      10.44207000      12.35963000      -0.00108700      -0.00028900      -0.00359900
O        8.11043000       2.88513000       0.88124000       0.00108100      -0.00188300      -0.00082900
O        1.49337000       9.50324000       7.49926000       0.00109700      -0.00199900      -0.00088900
O       11.71064000       3.82196000       7.50204000      -0.00074200       0.00142200      -0.00292300
O        5.09266000      10.44193000       0.88126000      -0.00096000       0.00163100      -0.00340400
O        2.82267000      12.40098000       5.10880000      -0.00047400      -0.00204800       0.00068700
O        9.44065000       5.78102000      11.72959000      -0.00036200      -0.00242700       0.00083100
O       12.34193000       5.15447000       2.84372000      -0.00046800      -0.00000400      -0.00218600
O        5.72490000      11.77261000       9.46173000      -0.00175400       0.00051300      -0.00163000
O        3.76440000       7.53970000      11.72930000       0.00152900       0.00132800       0.00018500
O       10.38144000       0.92157000       5.11127000       0.00183500       0.00046700      -0.00016800
O        5.72394000       1.55056000       3.78034000      -0.00056500      -0.00116200       0.00047200
O       12.34269000       8.16948000      10.39931000       0.00012800      -0.00096000       0.00060500
O        3.76348000       5.78296000       1.51127000       0.00052400      -0.00375800      -0.00136900
O       10.38225000      12.40187000       8.13023000       0.00078400      -0.00351300      -0.00134100
O        0.86423000       8.16917000       2.84133000       0.00102600      -0.00044200       0.00014100
O        7.48220000       1.54920000       9.46212000       0.00176100      -0.00074600       0.00046500
O        2.82132000       0.92263000       8.13336000      -0.00175900      -0.00092300       0.00025900
O        9.43914000       7.54337000       1.51355000      -0.00086800       0.00116400      -0.00074100
O        7.48208000      11.77670000       3.78029000      -0.00065800       0.00033600       0.00150000
O        0.86428000       5.15595000      10.40013000      -0.00183700      -0.00015000       0.00191800
