144
Lattice="13.623931743 -0.004415559 -0.003215867 -0.00363627 13.618820119 0.004456826 -0.002098098 0.003716917 13.617055385" Properties=species:S:1:pos:R:3:forces:R:3 stress="-0.0031365580640483654 -2.0097659385344093e-06 -1.6165508636037639e-06 -2.0097659385344093e-06 -0.003126328230591043 4.106913004831184e-06 -1.6165508636037639e-06 4.106913004831184e-06 -0.0031277388116534924" free_energy=-966.02250838 energy=-966.02250838 pbc="T T T"
Si       2.67986000       0.78969000       4.96507000      -0.00036100       0.00091100      -0.00107100
Si       9.48905000       7.59883000      11.77436000      -0.00059300      -0.00028500      -0.00160400
Si       3.66546000       5.96507000      11.77594000       0.00178800       0.00029200       0.00260800
Si      10.47670000      12.77037000       4.96821000       0.00145700      -0.00068900       0.00088000
Si       2.67833000      12.77195000       8.64100000      -0.00142800       0.00194300      -0.00037000
Si       9.49326000       5.95850000       1.82867000      -0.00304900       0.00012900      -0.00107200
Si       3.66548000       7.59633000       1.83398000       0.00145200      -0.00130800      -0.00035600
Si      10.47835000       0.78651000       8.63860000      -0.00121300      -0.00237900       0.00062500
Si       4.74041000       2.88083000       0.81004000      -0.00057700      -0.00116300      -0.00009900
Si      11.54947000       9.68963000       7.61933000      -0.00050100       0.00063100      -0.00195800
Si       0.58216000       4.94224000       2.90360000       0.00262800      -0.00053300      -0.00147000
Si       7.39124000      11.75127000       9.71280000       0.00195400       0.00113600      -0.00164900
Si       1.60320000       3.87014000       7.62105000       0.00174300      -0.00089900      -0.00164300
Si       8.41444000      10.67545000       0.81315000      -0.00092900       0.00054700       0.00172400
Si       5.75747000      11.75095000       3.89383000      -0.00052900      -0.00198600      -0.00154600
Si      12.57017000       4.94100000      10.69848000      -0.00173100      -0.00049300       0.00021800
Si      11.55427000       3.86520000       5.98409000      -0.00104300      -0.00185000       0.00003200
Si       4.73939000      10.67865000      12.79649000      -0.00094600      -0.00129500       0.00306100
Si      12.57239000       8.61406000       2.90278000       0.00133000       0.00358600       0.00039100
Si       5.76115000       1.80863000       9.71059000       0.00166000       0.00301700      -0.00061100
Si       8.41175000       2.88031000      12.79263000      -0.00159800      -0.00041900       0.00148400
Si       1.59903000       9.68996000       5.98813000      -0.00080400      -0.00006100      -0.00002100
Si       7.39507000       1.80271000       3.89104000       0.00073800       0.00084400      -0.00042200
Si       0.58022000       8.61613000      10.70338000       0.00087400       0.00093400       0.00160800
Si       2.67744000       4.94100000       0.81263000      -0.00108400       0.00015600       0.00155100
Si       9.48659000      11.74991000       7.62190000      -0.00032300       0.00025400      -0.00087800
Si       3.66709000       1.80931000       7.61740000       0.00039900       0.00049000      -0.00081400
Si      10.47836000       8.61471000       0.80958000      -0.00016200       0.00002600      -0.00243600
Si       2.67640000       8.61837000      12.79639000       0.00160100       0.00013800       0.00352900
Si       9.49123000       1.80493000       5.98408000       0.00052100      -0.00145300       0.00166100
Si       3.66489000      11.75253000       5.98895000      -0.00261900       0.00004900       0.00114700
Si      10.47776000       4.94278000      12.79379000      -0.00223200      -0.00139000      -0.00085700
Si       0.58305000       2.87997000       4.96764000       0.00175000      -0.00009700      -0.00113100
Si       7.39215000       9.68901000      11.77697000       0.00035600      -0.00094900      -0.00143800
Si       4.74133000       0.78510000       2.90287000      -0.00153800       0.00014300      -0.00116000
Si      11.55040000       7.59400000       9.71215000      -0.00278300      -0.00077200      -0.00129900
Si       5.75685000       3.87016000      11.77337000       0.00063300      -0.00057500      -0.00116200
Si      12.56803000      10.67536000       4.96577000      -0.00104300       0.00107900      -0.00000500
Si       1.60175000       7.59801000       3.89311000       0.00161900      -0.00122400       0.00108500
Si       8.41451000       0.78824000      10.69768000       0.00091600      -0.00065300       0.00041000
Si       7.39510000       3.86556000       1.82757000      -0.00093700      -0.00075300      -0.00061700
Si       0.58023000      10.67901000       8.64001000      -0.00070600       0.00210600      -0.00112600
Si       8.41297000      12.77088000       2.90532000       0.00166100       0.00067500       0.00040300
Si       1.60175000       5.96559000       9.71307000       0.00048100      -0.00081400      -0.00123500
Si      12.57290000       2.87744000       8.63823000       0.00019500      -0.00236800       0.00001800
Si       5.76013000       9.68728000       1.83356000      -0.00172600      -0.00358500      -0.00006300
Si      11.55516000       5.95957000       3.89074000       0.00239500       0.00035900      -0.00102500
Si       4.74035000      12.77305000      10.70308000       0.00033900       0.00122300      -0.00077100
O        3.24460000       1.07938000       3.46751000      -0.00111100      -0.00025000       0.00044500
O       10.05369000       7.88848000      10.27677000      -0.00024900      -0.00023100      -0.00064200
O        3.09843000       5.67542000      10.27950000      -0.00044200      -0.00016300      -0.00290600
O        9.90971000      12.48070000       3.47173000      -0.00089200       0.00000800      -0.00214100
O       10.05769000       5.66955000       3.32640000      -0.00123800       0.00090400       0.00164400
O        3.24288000      12.48294000      10.13869000      -0.00076300       0.00123800       0.00149200
O        3.09945000       7.89044000       3.33016000       0.00094600      -0.00047600       0.00080300
O        9.91225000       1.08063000      10.13479000       0.00121000      -0.00038800       0.00005100
O        3.24410000       3.44506000       1.10645000      -0.00105300      -0.00124900       0.00012400
O       10.05321000      10.25396000       7.91582000      -0.00089300      -0.00084200       0.00008300
O        0.87242000       3.44569000       3.47047000       0.00012200      -0.00126100       0.00013500
O        7.68123000      10.25473000      10.27975000       0.00026300      -0.00138600       0.00004200
O        3.09986000       3.30462000       7.91343000       0.00111600       0.00079200       0.00000500
O        9.91106000      10.10997000       1.10566000       0.00179700       0.00063500       0.00023400
O        5.46664000      10.25345000       3.32975000      -0.00008600       0.00082200       0.00194600
O       12.27929000       3.44356000      10.13443000      -0.00014500      -0.00060700       0.00094000
O       10.05683000       3.30159000       5.69126000       0.00029600       0.00169800      -0.00025000
O        3.24199000      10.11505000      12.50353000      -0.00068400       0.00093900      -0.00004600
O        5.46607000       3.30471000      10.27643000       0.00022800      -0.00026400      -0.00158800
O       12.27728000      10.11009000       3.46879000       0.00044500      -0.00116700      -0.00282500
O        3.09525000      10.25733000       5.69669000       0.00274800       0.00107500       0.00024500
O        9.90802000       3.44760000      12.50139000       0.00320300       0.00230200       0.00045600
O        7.68261000       3.30013000       3.32514000       0.00001600      -0.00075700       0.00233900
O        0.86759000      10.11361000      10.13762000       0.00033600      -0.00055200       0.00204500
O        4.87683000       1.37084000       1.39368000       0.00052500      -0.00153000      -0.00017400
O       11.68600000       8.17969000       8.20294000       0.00046000      -0.00178600      -0.00019200
O        8.28185000      12.18653000       1.39505000      -0.00018000      -0.00062300      -0.00130700
O        1.47066000       5.38125000       8.20272000      -0.00057900       0.00197600       0.00055200
O        8.27972000       1.36991000      12.20862000       0.00015800      -0.00090300       0.00030300
O        1.46697000       8.17958000       5.40407000       0.00026700      -0.00034600       0.00142300
O       11.69054000       5.37533000       5.40070000       0.00030300       0.00129200       0.00112900
O        4.87575000      12.18871000      12.21301000       0.00040200       0.00149900       0.00045500
O        1.16823000       1.37010000       5.09895000       0.00016600      -0.00099700      -0.00028400
O        7.97742000       8.17916000      11.90819000      -0.00126900       0.00009400       0.00001600
O        1.16570000       5.07250000       1.39294000      -0.00018700       0.00046900      -0.00100100
O        7.97485000      11.88144000       8.20214000      -0.00106300       0.00050600      -0.00018600
O        5.17610000       5.38165000      11.90595000      -0.00030900       0.00237300      -0.00065400
O       11.98731000      12.18691000       5.09841000       0.00012000       0.00117900      -0.00008000
O        1.16633000       8.48315000      12.21291000      -0.00311500      -0.00044100      -0.00070800
O        7.98112000       1.66973000       5.40055000      -0.00132400      -0.00032700       0.00075600
O       11.99015000       1.36658000       8.50597000       0.00206400      -0.00011900      -0.00039800
O        5.17732000       8.17639000       1.70140000       0.00163700       0.00040400      -0.00043900
O       11.98890000       8.48114000       1.39253000       0.00143000      -0.00108600      -0.00047300
O        5.17768000       1.67566000       8.20033000      -0.00012400      -0.00100900      -0.00090100
O        1.16886000      12.18720000       8.50664000      -0.00146500       0.00046200       0.00046300
O        7.98381000       5.37363000       1.69418000       0.00079500       0.00298300       0.00025300
O        5.17509000      11.88425000       5.40459000       0.00108100       0.00111200       0.00038500
O       11.98798000       5.07431000      12.20936000       0.00091400       0.00076500       0.00007700
O        3.69290000       1.51979000       6.02009000      -0.00060800      -0.00038000      -0.00202300
O       10.50208000       8.32897000      12.82929000       0.00036600       0.00035100      -0.00005900
O        2.65278000       5.23727000      12.83281000       0.00042000      -0.00028300      -0.00214900
O        9.46401000      12.04249000       6.02497000      -0.00005000      -0.00085000       0.00051300
O        3.69305000      12.04523000       7.58560000       0.00053700      -0.00034100      -0.00067800
O       10.50804000       5.23168000       0.77335000       0.00044600       0.00026300       0.00069600
O        2.65296000       8.32290000       0.77621000      -0.00001400       0.00029800      -0.00053000
O        9.46571000       1.51306000       7.58091000       0.00043700       0.00016100       0.00031200
O        5.79926000       3.89670000       1.53059000      -0.00050900       0.00038700       0.00015600
O       12.60834000      10.70568000       8.33965000       0.00021900      -0.00031000       0.00031800
O        1.30808000       6.00121000       3.91556000       0.00043500       0.00083600       0.00084700
O        8.11723000      12.81025000      10.72473000      -0.00009200       0.00000500       0.00015700
O        0.54574000       2.85735000       8.34813000       0.00040600      -0.00113000       0.00081200
O        7.35682000       9.66260000       1.54010000       0.00358500       0.00036900      -0.00039000
O        5.02955000      12.80688000       2.87990000      -0.00001000      -0.00088200      -0.00082600
O       11.84206000       5.99693000       9.68467000       0.00003600      -0.00052000      -0.00077400
O       12.61092000       2.84961000       5.26009000      -0.00362100       0.00048800       0.00015600
O        5.79608000       9.66297000      12.07280000      -0.00104100      -0.00027700      -0.00111100
O       11.84903000       7.55590000       3.91704000       0.00029000      -0.00126800       0.00216400
O        5.03783000       0.75058000      10.72497000      -0.00012500      -0.00192100       0.00237000
O        7.35339000       3.89360000      12.06797000       0.00068400      -0.00009900       0.00056800
O        0.54057000      10.70324000       5.26362000       0.00191100      -0.00000200       0.00056600
O        8.12167000       0.74837000       2.87469000       0.00002000       0.00051400       0.00037100
O        1.30685000       7.56188000       9.68700000       0.00021700       0.00072400      -0.00027700
O        5.02757000       2.85806000      12.82977000      -0.00111200       0.00066700      -0.00078200
O       11.83857000       9.66316000       6.02193000      -0.00137500      -0.00046600       0.00114700
O        1.30964000       3.89402000       6.02423000      -0.00007900       0.00044800      -0.00024400
O        8.11884000      10.70313000      12.83341000      -0.00017500       0.00048400      -0.00090600
O        8.11922000       2.84926000       0.77184000       0.00040600       0.00023200       0.00046700
O        1.30460000       9.66275000       7.58440000       0.00056700       0.00015000       0.00183300
O       11.84697000       3.89052000       7.58067000      -0.00015900       0.00048300      -0.00016800
O        5.03407000      10.70038000       0.77610000      -0.00039400       0.00033200      -0.00229500
O        2.65241000      12.81239000       5.26562000      -0.00017900      -0.00113500       0.00013200
O        9.46537000       6.00274000      12.07050000      -0.00064200      -0.00084900       0.00024800
O       12.61010000       5.23363000       2.87451000      -0.00473600       0.00076700       0.00108400
O        5.79525000      12.04726000       9.68680000      -0.00228300       0.00003100       0.00023200
O        3.69078000       7.56090000      12.07235000       0.00006000       0.00058300      -0.00009200
O       10.50558000       0.74740000       5.26001000      -0.00025000       0.00172000       0.00067900
O        5.79911000       1.50630000       3.91932000      -0.00026500      -0.00036200       0.00050800
O       12.60824000       8.31511000      10.72852000       0.00022300       0.00046900       0.00127800
O        3.68808000       5.99961000       1.54073000       0.00021300       0.00017400       0.00030700
O       10.49725000      12.80856000       8.34992000       0.00034700       0.00103300       0.00034900
O        0.54540000       8.32624000       2.87999000       0.00044500       0.00074600      -0.00081000
O        7.35810000       1.51636000       9.68448000       0.00138200      -0.00031300       0.00010400
O        2.65421000       0.74899000       8.33950000      -0.00082000      -0.00050300       0.00031700
O        9.46549000       7.55429000       1.53155000      -0.00107000       0.00039900       0.00035700
O        7.35404000      12.04589000       3.91796000       0.00048400      -0.00025600       0.00027700
O        0.54275000       5.24050000      10.72556000       0.00156100      -0.00040900       0.00061800
