144
Lattice="14.92474782 -0.001052902 0.000328935 -0.001050149 14.90214335 7.6969e-05 0.000328982 7.6729e-05 14.925360967" Properties=species:S:1:pos:R:3:forces:R:3 stress="6.3913053449044576e-06 6.447478927037406e-06 1.5541357723449315e-06 6.447478927037406e-06 -1.0548150422742706e-05 3.7449054755299545e-07 1.5541357723449315e-06 3.7449054755299545e-07 2.2656678126956227e-06" free_energy=-965.43907418 energy=-965.43907418 pbc="T T T"
Si       4.02446000       1.50223000       5.91179000       0.00004400       0.00021300      -0.00044600
Si      11.48647000       8.95281000      13.37467000       0.00004200       0.00021500      -0.00044000
Si       4.01628000       5.85189000      13.37419000       0.00040000       0.00035400      -0.00033500
Si      11.47796000      13.30239000       5.91171000       0.00040000       0.00035100      -0.00034000
Si       4.02370000      13.30346000       9.00832000      -0.00136300      -0.00115200       0.00037300
Si      11.48644000       5.85182000       1.54576000      -0.00136200      -0.00115000       0.00037800
Si       4.01582000       8.95260000       1.54492000       0.00041600       0.00107400      -0.00008000
Si      11.47889000       1.50104000       9.00773000       0.00041500       0.00107100      -0.00008500
Si       6.20298000       3.67731000       1.54559000       0.00158900       0.00005900      -0.00021700
Si      13.66499000      11.12790000       9.00847000       0.00158900       0.00006100      -0.00022400
Si       1.83813000       5.85344000       3.72612000      -0.00056900       0.00034600       0.00040800
Si       9.30014000      13.30402000      11.18900000      -0.00056700       0.00034100       0.00040900
Si       1.83771000       3.67699000       9.00835000      -0.00128600      -0.00020100       0.00042100
Si       9.29940000      11.12750000       1.54587000      -0.00128800      -0.00020100       0.00042500
Si       6.20232000      13.30387000       3.73177000       0.00082600      -0.00022100      -0.00077800
Si      13.66538000       5.85231000      11.19457000       0.00082500      -0.00022100      -0.00077500
Si      13.66649000       3.67575000       5.91191000       0.00000300      -0.00049100       0.00077900
Si       6.20376000      11.12738000      13.37446000       0.00000300      -0.00049100       0.00078700
Si      13.66499000       8.95150000       3.72632000       0.00049900       0.00000800       0.00022400
Si       6.20331000       1.50099000      11.18879000       0.00049800       0.00000700       0.00022500
Si       9.29953000       3.67731000      13.37431000       0.00011300      -0.00016100       0.00103100
Si       1.83647000      11.12887000       5.91150000       0.00011200      -0.00016200       0.00102500
Si       9.30084000       1.50049000       3.73133000       0.00026500       0.00086500      -0.00085500
Si       1.83811000       8.95213000      11.19389000       0.00026900       0.00086900      -0.00085400
Si       4.01606000       5.85210000       1.54525000       0.00053600      -0.00016300      -0.00009200
Si      11.47807000      13.30268000       9.00814000       0.00053700      -0.00016700      -0.00009700
Si       4.02368000       1.50139000       9.00870000      -0.00020600       0.00002500       0.00140900
Si      11.48536000       8.95190000       1.54623000      -0.00020300       0.00002700       0.00141400
Si       4.01680000       8.95267000      13.37392000       0.00062800       0.00113700      -0.00048400
Si      11.47953000       1.50103000       5.91137000       0.00062600       0.00113400      -0.00049000
Si       4.02329000      13.30429000       5.91184000       0.00073100      -0.00113900       0.00016700
Si      11.48636000       5.85273000      13.37464000       0.00072900      -0.00113600       0.00017300
Si       1.83854000       3.67797000       5.91188000      -0.00171500      -0.00024800       0.00035900
Si       9.30055000      11.12855000      13.37477000      -0.00171600      -0.00025000       0.00036500
Si       6.20401000       1.50091000       3.73197000       0.00083900      -0.00045400      -0.00154100
Si      13.66603000       8.95149000      11.19485000       0.00083700      -0.00044900      -0.00154000
Si       6.20300000       3.67699000      13.37471000       0.00026400       0.00003100       0.00012000
Si      13.66468000      11.12749000       5.91223000       0.00026500       0.00002900       0.00011300
Si       1.83707000       8.95282000       3.72526000      -0.00030800       0.00084900      -0.00009000
Si       9.30013000       1.50126000      11.18807000      -0.00030500       0.00084900      -0.00008800
Si       9.29943000       3.67640000       1.54474000      -0.00014100       0.00021900      -0.00092100
Si       1.83670000      11.12803000       9.00730000      -0.00014200       0.00022000      -0.00092700
Si       9.29967000      13.30334000       3.73213000      -0.00028300      -0.00036600       0.00011000
Si       1.83799000       5.85283000      11.19461000      -0.00027900      -0.00036600       0.00011100
Si      13.66602000       3.67555000       9.00866000      -0.00019200       0.00014200      -0.00012700
Si       6.20296000      11.12711000       1.54585000      -0.00019200       0.00014400      -0.00012300
Si      13.66549000       5.85201000       3.72620000      -0.00046100      -0.00017000       0.00044400
Si       6.20275000      13.30365000      11.18876000      -0.00046200      -0.00017600       0.00044600
O        5.29879000       1.91614000       5.00625000      -0.00049100      -0.00112000       0.00099000
O       12.76080000       9.36672000      12.46914000      -0.00048800      -0.00112000       0.00098700
O        2.74234000       5.43615000      12.46889000       0.00137500      -0.00038600      -0.00014900
O       10.20402000      12.88665000       5.00641000       0.00137800      -0.00038600      -0.00014600
O       12.76004000       5.43673000       2.45200000      -0.00018200       0.00034400       0.00122400
O        5.29731000      12.88837000       9.91456000      -0.00018000       0.00034500       0.00122600
O        2.74179000       9.36739000       2.45060000      -0.00034200       0.00016500      -0.00062500
O       10.20486000       1.91583000       9.91341000      -0.00034400       0.00016500      -0.00062400
O        5.29763000       4.95393000       1.95286000      -0.00024500       0.00190100      -0.00022000
O       12.75964000      12.40451000       9.41575000      -0.00024500       0.00190100      -0.00021900
O        2.24519000       4.95561000       5.00794000      -0.00125900       0.00059100      -0.00050800
O        9.70721000      12.40619000      12.47082000      -0.00125900       0.00059400      -0.00051100
O        2.74233000       2.40009000       9.41566000       0.00070600      -0.00083700       0.00123200
O       10.20402000       9.85060000       1.95319000       0.00070600      -0.00083600       0.00123200
O        5.79649000      12.40431000       2.45075000       0.00173800       0.00089100      -0.00077400
O       13.25956000       4.95275000       9.91356000       0.00174000       0.00089300      -0.00077100
O       12.76213000       2.39838000       5.50482000      -0.00050300      -0.00022400      -0.00148000
O        5.29940000       9.85002000      12.96738000      -0.00050600      -0.00022600      -0.00148100
O        5.79651000       2.39983000      12.47011000       0.00010100       0.00073300      -0.00010700
O       13.25820000       9.85034000       5.00764000       0.00010100       0.00073500      -0.00010400
O        2.74097000      12.40651000       5.50605000       0.00119500       0.00115200       0.00061800
O       10.20403000       4.95495000      12.96886000       0.00119600       0.00115200       0.00061700
O        9.70542000       2.39903000       2.44922000       0.00016900      -0.00011400       0.00176900
O        2.24269000       9.85067000       9.91177000       0.00016900      -0.00011800       0.00177400
O        5.79724000       2.40064000       2.45123000      -0.00044000       0.00023500       0.00043200
O       13.25925000       9.85123000       9.91412000      -0.00044000       0.00023000       0.00043800
O        9.70563000      12.40464000       2.45064000      -0.00106000       0.00062700      -0.00075400
O        2.24395000       4.95414000       9.91312000      -0.00106100       0.00062900      -0.00075300
O        9.70651000       2.40102000      12.46876000      -0.00009600       0.00059600      -0.00124100
O        2.24345000       9.85258000       5.00596000      -0.00009500       0.00059700      -0.00124000
O       13.25891000       4.95293000       5.00739000       0.00136600       0.00122400       0.00005200
O        5.79618000      12.40457000      12.46994000       0.00136600       0.00122800       0.00004900
O        2.74361000       2.40146000       5.50429000       0.00154200      -0.00088300      -0.00034300
O       10.20562000       9.85204000      12.96718000       0.00154400      -0.00088400      -0.00034300
O        2.74252000       5.43731000       2.45168000       0.00083500      -0.00070500       0.00018800
O       10.20454000      12.88789000       9.91456000       0.00083300      -0.00070400       0.00019100
O        5.29788000       4.95366000      12.96716000       0.00056500       0.00128100      -0.00023800
O       12.75957000      12.40417000       5.50468000       0.00056400       0.00128300      -0.00023700
O        2.74376000       9.36872000      12.46727000      -0.00095300       0.00023400       0.00060800
O       10.20650000       1.91708000       5.00472000      -0.00094900       0.00023500       0.00061200
O       12.76053000       2.39904000       9.41584000      -0.00088700      -0.00117500       0.00036600
O        5.29746000       9.85060000       1.95303000      -0.00088900      -0.00117700       0.00036600
O       12.75895000       9.36642000       2.45257000      -0.00000600      -0.00064100      -0.00124500
O        5.29727000       1.91591000       9.91505000      -0.00000200      -0.00064100      -0.00124200
O        2.74223000      12.40453000       9.41418000       0.00063900       0.00188900      -0.00110500
O       10.20496000       4.95290000       1.95163000       0.00064000       0.00188800      -0.00110500
O        5.29646000      12.88839000       5.00546000      -0.00117300       0.00031300       0.00094200
O       12.75952000       5.43683000      12.46827000      -0.00116900       0.00031300       0.00093800
O        4.43837000       1.75171000       7.46041000      -0.00054000       0.00010200      -0.00063600
O       11.90039000       9.20230000      14.92330000      -0.00054000       0.00010200      -0.00064400
O        3.60132000       5.60299000      14.92247000      -0.00054700      -0.00134900       0.00074600
O       11.06301000      13.05350000       7.45999000      -0.00054700      -0.00134900       0.00075200
O        4.43920000      13.05565000       7.45997000       0.00043200      -0.00009200      -0.00046500
O       11.90226000       5.60409000      14.92278000       0.00043200      -0.00009200      -0.00047200
O        3.60184000       9.20422000      14.92198000       0.00139400       0.00092700       0.00005800
O       11.06457000       1.75258000       7.45943000       0.00139400       0.00092800       0.00006500
O        7.75141000       4.09329000       1.79261000      -0.00160400      -0.00046200      -0.00066200
O        0.28868000      11.54493000       9.25516000      -0.00160300      -0.00046200      -0.00066200
O        2.08776000       7.40339000       4.13384000      -0.00075000      -0.00057900      -0.00052800
O        9.54978000      14.85397000      11.59673000      -0.00075000      -0.00057500      -0.00052900
O        0.28959000       3.26085000       9.25643000       0.00113900      -0.00173400      -0.00077100
O        7.75127000      10.71136000       1.79395000       0.00114300      -0.00173400      -0.00077100
O        5.95250000      14.85355000       3.32290000      -0.00074600       0.00093700       0.00083900
O       13.41557000       7.40199000      10.78571000      -0.00074600       0.00093500       0.00083900
O        0.29036000       3.26227000       5.66317000       0.00066600      -0.00157200       0.00122000
O        7.75238000      10.71285000      13.12605000       0.00066700      -0.00157100       0.00121900
O       13.41554000       7.40175000       4.13466000      -0.00047300      -0.00032000      -0.00091700
O        5.95281000      14.85338000      11.59721000      -0.00047300      -0.00031500      -0.00091800
O        7.75118000       4.09302000      13.12675000      -0.00060700       0.00000400       0.00126900
O        0.28811000      11.54458000       5.66394000      -0.00060600       0.00000500       0.00127000
O        9.55084000      14.85291000       3.32387000      -0.00047800       0.00035200       0.00066700
O        2.08915000       7.40240000      10.78635000      -0.00047800       0.00035000       0.00066600
O        5.95417000       3.26118000      14.92288000      -0.00000500      -0.00053300      -0.00035900
O       13.41586000      10.71169000       7.46041000      -0.00000500      -0.00053300      -0.00035200
O        2.08611000       4.09291000       7.46033000      -0.00074200      -0.00092700      -0.00032000
O        9.54812000      11.54349000      14.92321000      -0.00074200      -0.00092700      -0.00032700
O        9.54756000       3.25983000      14.92205000      -0.00005300      -0.00108900      -0.00129100
O        2.08450000      10.71139000       7.45924000      -0.00005300      -0.00108800      -0.00128400
O       13.41812000       4.09091000       7.46029000      -0.00032300      -0.00060800       0.00028300
O        5.95539000      11.54254000      14.92284000      -0.00032200      -0.00060800       0.00027500
O        3.61608000      14.85433000       5.66266000      -0.00025200       0.00158500       0.00133000
O       11.07915000       7.40277000      13.12547000      -0.00025200       0.00158200       0.00133000
O        0.28954000       5.60590000       3.31113000       0.00007900      -0.00044600      -0.00049700
O        7.75156000      13.05649000      10.77402000       0.00007900      -0.00044500      -0.00049700
O        4.42337000       7.40214000      13.12571000      -0.00030100       0.00009600       0.00149600
O       11.88505000      14.85265000       5.66324000      -0.00030100       0.00010000       0.00149600
O        7.75259000       1.74856000       4.14740000      -0.00035800       0.00017300       0.00038700
O        0.28986000       9.20019000      11.60995000      -0.00036000       0.00017300       0.00038700
O        4.42352000       7.40240000       1.79261000      -0.00019200      -0.00093600      -0.00054000
O       11.88553000      14.85298000       9.25549000      -0.00019200      -0.00093100      -0.00053900
O        0.28857000       9.20140000       3.31043000      -0.00021700      -0.00086700      -0.00050800
O        7.75164000       1.74984000      10.77324000      -0.00021800      -0.00086700      -0.00050900
O        3.61549000      14.85333000       9.25723000       0.00112500       0.00124700      -0.00058500
O       11.07822000       7.40170000       1.79467000       0.00112500       0.00124400      -0.00058600
O        7.75099000      13.05748000       4.14765000       0.00012000      -0.00056100       0.00026000
O        0.28930000       5.60697000      11.61013000       0.00011800      -0.00056100       0.00026000
