144
Lattice="14.828037956 -0.000505762 0.000273664 -0.00050506 14.817773363 -0.00016892 0.000273879 -0.00016741 14.837165881" Properties=species:S:1:pos:R:3:forces:R:3 stress="-0.004989337565048559 -2.995924380423964e-07 -3.994565840565286e-07 -2.995924380423964e-07 -0.004990560900837232 -7.24015058602458e-07 -3.994565840565286e-07 -7.24015058602458e-07 -0.005000541073929519" free_energy=-965.22585993 energy=-965.22585993 pbc="T T T"
Si       3.54286000       1.34338000       5.87033000      -0.00101800      -0.00016700      -0.00072200
Si      10.95675000       8.75190000      13.28895000      -0.00062400      -0.00100400      -0.00066200
Si       3.53822000       5.64431000      13.28819000      -0.00129900      -0.00009700       0.00120600
Si      10.95187000      13.05304000       5.86964000      -0.00074800       0.00083700       0.00099300
Si       3.54185000      13.05355000       8.97285000       0.00091100       0.00013600      -0.00085100
Si      10.95600000       5.64453000       1.55450000       0.00146100      -0.00123100      -0.00017500
Si       3.53840000       8.75197000       1.55347000      -0.00127300      -0.00120500       0.00014500
Si      10.95283000       1.34272000       8.97228000      -0.00086500      -0.00065000      -0.00070900
Si       5.69354000       3.49277000       1.55375000      -0.00061700       0.00074800       0.00013800
Si      13.10743000      10.90131000       8.97237000      -0.00113000       0.00095100      -0.00073300
Si       1.38554000       5.64540000       3.71018000      -0.00070300       0.00008800       0.00041800
Si       8.79941000      13.05387000      11.12878000       0.00025900       0.00146400      -0.00041700
Si       1.38708000       3.49558000       8.97297000      -0.00026200       0.00201100      -0.00068000
Si       8.80071000      10.90429000       1.55439000       0.00000400       0.00229200       0.00034800
Si       5.69519000      13.05405000       3.71324000       0.00076700       0.00042300       0.00055300
Si      13.10959000       5.64481000      11.13206000       0.00054300      -0.00071900       0.00011100
Si      13.10893000       3.49504000       5.87056000       0.00014500       0.00053200      -0.00035000
Si       5.69475000      10.90409000      13.28891000      -0.00002400       0.00051800      -0.00000800
Si      13.11045000       8.75117000       3.71064000       0.00184800      -0.00155900       0.00149900
Si       5.69685000       1.34243000      11.12914000       0.00211300      -0.00041900       0.00044800
Si       8.80036000       3.49272000      13.28936000       0.00090100      -0.00073700      -0.00079300
Si       1.38598000      10.90194000       5.87054000       0.00031700      -0.00060600      -0.00109700
Si       8.79996000       1.34286000       3.71380000       0.00049600      -0.00122300       0.00023000
Si       1.38583000       8.75190000      11.13216000       0.00013700      -0.00201900      -0.00026600
Si       3.53747000       5.64393000       1.55354000      -0.00232800       0.00022700      -0.00077000
Si      10.95136000      13.05245000       8.97214000      -0.00187000       0.00078400      -0.00130800
Si       3.54342000       1.34407000       8.97253000       0.00016100       0.00049400      -0.00079800
Si      10.95708000       8.75280000       1.55397000       0.00027400      -0.00077900       0.00011700
Si       3.53805000       8.75215000      13.28864000      -0.00032900      -0.00108700       0.00120600
Si      10.95218000       1.34312000       5.87030000       0.00049700      -0.00025100       0.00080100
Si       3.54230000      13.05307000       5.87056000       0.00020200       0.00045400      -0.00057100
Si      10.95675000       5.64382000      13.28939000       0.00067600      -0.00070500       0.00012800
Si       1.38679000       3.49526000       5.87017000      -0.00047600       0.00201800      -0.00128800
Si       8.80060000      10.90373000      13.28877000      -0.00030700       0.00165000      -0.00087000
Si       5.69561000       1.34191000       3.71274000       0.00089300      -0.00155200      -0.00010200
Si      13.10951000       8.75044000      11.13137000       0.00078300      -0.00200800      -0.00106600
Si       5.69475000       3.49355000      13.28853000      -0.00005200       0.00115800      -0.00062000
Si      13.10835000      10.90225000       5.86998000      -0.00026000       0.00143100      -0.00083200
Si       1.38629000       8.75145000       3.71053000      -0.00009000      -0.00161300       0.00059200
Si       8.80068000       1.34219000      11.12928000      -0.00015500      -0.00146100       0.00075800
Si       8.79956000       3.49375000       1.55474000       0.00093300      -0.00168100      -0.00058300
Si       1.38541000      10.90279000       8.97309000       0.00013700      -0.00165700      -0.00119800
Si       8.79965000      13.05499000       3.71331000       0.00007100       0.00105300       0.00115400
Si       1.38605000       5.64627000      11.13185000      -0.00036600       0.00003900       0.00061700
Si      13.10927000       3.49448000       8.97242000      -0.00107200       0.00006800      -0.00079300
Si       5.69488000      10.90370000       1.55358000      -0.00112900       0.00005900       0.00048900
Si      13.10956000       5.64522000       3.71103000       0.00125200       0.00040900       0.00164400
Si       5.69540000      13.05423000      11.12935000       0.00196300       0.00097300       0.00114300
O        4.82949000       1.78866000       5.00105000      -0.00032900      -0.00263400      -0.00083500
O       12.24337000       9.19718000      12.41965000      -0.00078600      -0.00250700      -0.00032700
O        2.25107000       5.19824000      12.42024000       0.00079600       0.00141100      -0.00053500
O        9.66476000      12.60697000       5.00166000       0.00012800       0.00122600      -0.00106500
O       12.24268000       5.19835000       2.42332000      -0.00244200       0.00300500      -0.00055700
O        4.82849000      12.60731000       9.84166000      -0.00159200       0.00265900      -0.00014900
O        2.25345000       9.20022000       2.42372000       0.00076000      -0.00085400       0.00097800
O        9.66793000       1.79099000       9.84256000       0.00080000      -0.00055900       0.00081600
O        4.83001000       4.78351000       1.99901000       0.00167600      -0.00154200      -0.00080900
O       12.24391000      12.19204000       9.41762000       0.00169400      -0.00170000      -0.00078300
O        1.82994000       4.78376000       5.00232000      -0.00015100      -0.00061000       0.00077400
O        9.24380000      12.19222000      12.42090000      -0.00029800      -0.00107100       0.00137900
O        2.25038000       2.20439000       9.41756000       0.00085900      -0.00027600      -0.00045900
O        9.66410000       9.61317000       1.99905000       0.00049000      -0.00001300      -0.00063500
O        5.25041000      12.19104000       2.42227000      -0.00048600      -0.00224200       0.00012800
O       12.66471000       4.78176000       9.84113000      -0.00040700      -0.00152500       0.00060500
O       12.24580000       2.20337000       5.42725000      -0.00026900      -0.00034000       0.00179200
O        4.83164000       9.61240000      12.84560000       0.00026400       0.00022600       0.00160500
O        5.25329000       2.20425000      12.42131000       0.00060500       0.00141600      -0.00008100
O       12.66667000       9.61305000       5.00269000       0.00046300       0.00114300      -0.00062900
O        2.24963000      12.19261000       5.42521000       0.00046600      -0.00046400       0.00143700
O        9.66412000       4.78331000      12.84401000       0.00037900      -0.00040700       0.00135400
O        9.24359000       2.20534000       2.42205000      -0.00034300       0.00065200      -0.00101500
O        1.82943000       9.61439000       9.84040000      -0.00014000       0.00057800      -0.00082300
O        5.25114000       2.20370000       2.42084000       0.00006300       0.00105700      -0.00055700
O       12.66505000       9.61223000       9.83945000       0.00012000       0.00055100       0.00007800
O        9.24408000      12.19336000       2.42124000       0.00030400      -0.00175500      -0.00201500
O        1.83055000       4.78462000       9.83980000       0.00033600      -0.00106600      -0.00124900
O        9.24259000       2.20335000      12.42250000      -0.00093400       0.00115300       0.00081700
O        1.82836000       9.61260000       5.00371000      -0.00085600       0.00090600       0.00085100
O       12.66534000       4.78344000       5.00306000       0.00001900      -0.00057200      -0.00034200
O        5.25121000      12.19250000      12.42141000      -0.00017500      -0.00103100       0.00018200
O        2.24950000       2.20354000       5.42609000       0.00126300      -0.00026700       0.00081200
O        9.66335000       9.61202000      12.84473000       0.00085100       0.00002900       0.00074900
O        2.25039000       5.19778000       2.42153000       0.00094400       0.00076100      -0.00016700
O        9.66429000      12.60628000       9.84011000       0.00030700       0.00075400       0.00062500
O        4.83121000       4.78423000      12.84313000       0.00146900      -0.00066200       0.00114200
O       12.24491000      12.19302000       5.42463000       0.00146600      -0.00082500       0.00115500
O        2.25160000       9.19968000      12.42023000       0.00060700      -0.00048300      -0.00104800
O        9.66574000       1.79064000       5.00188000       0.00008700      -0.00092900      -0.00113700
O       12.24745000       2.20164000       9.41469000       0.00113900      -0.00018200      -0.00182600
O        4.83299000       9.61091000       1.99590000       0.00140100       0.00013300      -0.00193600
O       12.24403000       9.19823000       2.42276000      -0.00176600      -0.00176000      -0.00137000
O        4.83032000       1.78959000       9.84135000      -0.00137000      -0.00200100      -0.00028300
O        2.24799000      12.19450000       9.41767000       0.00053300      -0.00082600      -0.00136900
O        9.66216000       4.78545000       1.99934000       0.00030500      -0.00093800      -0.00159400
O        4.82959000      12.60790000       5.00212000      -0.00028100       0.00217200       0.00030000
O       12.24407000       5.19868000      12.42099000      -0.00056500       0.00234100       0.00047500
O        3.91767000       1.61139000       7.42130000       0.00162700       0.00039800       0.00121600
O       11.33131000       9.02009000       0.00275000       0.00157900       0.00060300       0.00048900
O        3.16412000       5.37681000       0.00217000      -0.00186800      -0.00118900      -0.00022700
O       10.57801000      12.78535000       7.42077000      -0.00202700      -0.00132900       0.00030000
O        3.91613000      12.78543000       7.42175000       0.00207200      -0.00011900       0.00174600
O       11.33031000       5.37636000       0.00343000       0.00185100       0.00008900       0.00078400
O        3.16212000       9.01792000       0.00260000      -0.00262800       0.00101500      -0.00075100
O       10.57652000       1.60871000       7.42141000      -0.00265600       0.00085200       0.00002900
O        7.24644000       3.86536000       1.81218000      -0.00047400       0.00066100      -0.00097900
O       14.66032000      11.27390000       9.23078000       0.00050800       0.00063600      -0.00081700
O        1.64784000       7.19831000       4.07923000      -0.00083800       0.00078200       0.00162900
O        9.06170000      14.60681000      11.49781000      -0.00087800       0.00001700       0.00181800
O       14.66224000       3.12316000       9.23168000       0.00109200      -0.00038900      -0.00042100
O        7.24784000      10.53229000       1.81279000       0.00093500      -0.00058100      -0.00074800
O        5.43449000      14.60675000       3.34123000       0.00143400       0.00038600      -0.00289900
O       12.84893000       7.19750000      10.76001000       0.00127100       0.00136200      -0.00275100
O       14.66184000       3.12276000       5.61227000       0.00066900      -0.00075000       0.00106500
O        7.24763000      10.53176000      13.03062000      -0.00010100      -0.00092400       0.00099500
O       12.84967000       7.19829000       4.08182000       0.00158200       0.00200700       0.00253900
O        5.43553000      14.60733000      11.50007000       0.00154700       0.00034200       0.00278400
O        7.24774000       3.86651000      13.03160000      -0.00054800       0.00184600       0.00122400
O       14.66136000      11.27506000       5.61300000       0.00010800       0.00143200       0.00118700
O        9.06205000      14.60785000       3.34391000      -0.00129200      -0.00010000      -0.00232600
O        1.64845000       7.19911000      10.76244000      -0.00123000       0.00110900      -0.00228000
O        5.42740000       3.11913000       0.00239000       0.00042100      -0.00159500      -0.00003500
O       12.84129000      10.52765000       7.42100000       0.00045100      -0.00162200       0.00063400
O        1.65249000       3.86996000       7.42143000       0.00032900       0.00137900       0.00173100
O        9.06611000      11.27864000       0.00286000       0.00009900       0.00133700       0.00083600
O        9.06597000       3.11890000       0.00355000      -0.00030400      -0.00276400       0.00029700
O        1.65184000      10.52795000       7.42188000      -0.00018600      -0.00271900       0.00114700
O       12.84368000       3.87084000       7.42161000       0.00024000       0.00197200       0.00131800
O        5.42925000      11.28006000       0.00280000       0.00016600       0.00205200       0.00012200
O        3.17369000      14.60714000       5.61379000      -0.00297700      -0.00000800       0.00253600
O       10.58811000       7.19785000      13.03261000      -0.00308400       0.00170900       0.00240200
O       14.66148000       5.38134000       3.33730000      -0.00030400       0.00002600      -0.00052600
O        7.24733000      12.79032000      10.75561000      -0.00114500      -0.00013600      -0.00044200
O        3.90621000       7.19826000      13.03051000       0.00161100       0.00144600       0.00260900
O       11.31985000      14.60701000       5.61200000       0.00144800       0.00041600       0.00263100
O        7.24763000       1.60549000       4.08645000      -0.00060400       0.00012700       0.00056700
O       14.66153000       9.01402000      11.50509000      -0.00049800       0.00025400       0.00064400
O        3.90561000       7.19782000       1.81100000       0.00138800       0.00027900      -0.00238900
O       11.31953000      14.60634000       9.22960000       0.00119600      -0.00035400      -0.00229900
O       14.66248000       9.01407000       3.33653000      -0.00092600       0.00052300      -0.00159200
O        7.24886000       1.60531000      10.75488000      -0.00126700       0.00028800      -0.00145500
O        3.17439000      14.60789000       9.22924000      -0.00284100      -0.00006200      -0.00189500
O       10.58848000       7.19884000       1.81087000      -0.00283800       0.00173700      -0.00202400
O        7.24751000      12.79157000       4.08619000      -0.00023100      -0.00058800       0.00030200
O       14.66193000       5.38231000      11.50492000      -0.00003400      -0.00037200       0.00034100
