144
Lattice="13.30795908 -0.002764313 0.001174115 -0.002771794 13.310097186 0.000790007 0.001152281 0.000793078 13.325066413" Properties=species:S:1:pos:R:3:forces:R:3 stress="-0.008124304044269825 7.95168262637527e-06 -7.658331697458757e-06 7.95168262637527e-06 -0.008118299712490725 -1.547894263219048e-06 -7.658331697458757e-06 -1.547894263219048e-06 -0.00812091490481447" free_energy=-964.90363017 energy=-964.90363017 pbc="T T T"
Si       2.86137000       0.75036000       4.80896000       0.00112200      -0.00093400       0.00129700
Si       9.51456000       7.40443000      11.47250000       0.00040800       0.00074600       0.00013200
Si       3.95268000       5.96550000      11.47192000      -0.00014100      -0.00014900      -0.00172100
Si      10.60468000      12.61878000       4.81040000      -0.00021900      -0.00189200      -0.00056200
Si       2.85650000      12.62144000       8.51094000       0.00006100      -0.00134200       0.00107100
Si       9.51130000       5.96463000       1.84862000      -0.00019800      -0.00027500       0.00036500
Si       3.94937000       7.40339000       1.84816000       0.00040200       0.00158900      -0.00059300
Si      10.60529000       0.74735000       8.51089000       0.00092100       0.00022800       0.00030600
Si       4.88036000       2.80624000       0.71625000       0.00150400       0.00085500       0.00097000
Si      11.53353000       9.46029000       7.37974000       0.00070500       0.00093700       0.00212500
Si       0.79738000       4.83243000       2.78027000      -0.00084200       0.00055600       0.00037500
Si       7.45053000      11.48649000       9.44377000      -0.00130800       0.00018200      -0.00005000
Si       1.93089000       3.90784000       7.38129000      -0.00112100      -0.00030800       0.00249200
Si       8.58292000      10.56113000       0.71976000      -0.00119600      -0.00101700       0.00071400
Si       6.01055000      11.48733000       3.87681000      -0.00068900      -0.00026600       0.00038400
Si      12.66645000       4.83129000      10.53957000       0.00073900      -0.00010400      -0.00168400
Si      11.53623000       3.90609000       5.93979000       0.00135200      -0.00020100       0.00115100
Si       4.88145000      10.56292000      12.60216000       0.00080500       0.00012300      -0.00099200
Si      12.66557000       8.53682000       2.78159000      -0.00081200      -0.00041900       0.00052400
Si       6.01351000       1.88356000       9.44314000      -0.00108300      -0.00134700       0.00095000
Si       8.58421000       2.80797000      12.60283000      -0.00119700       0.00077900      -0.00096000
Si       1.92828000       9.46399000       5.94010000      -0.00055000       0.00168400       0.00015600
Si       7.45446000       1.88258000       3.87486000      -0.00033500      -0.00062800      -0.00100400
Si       0.79967000       8.53939000      10.53720000      -0.00009800      -0.00052500      -0.00101200
Si       2.85535000       4.83175000       0.71687000       0.00131200       0.00085100      -0.00050500
Si       9.50853000      11.48581000       7.38037000       0.00042000       0.00017800       0.00190500
Si       3.95639000       1.88220000       7.37961000      -0.00172100      -0.00152200       0.00274500
Si      10.60842000       8.53547000       0.71808000      -0.00153900      -0.00086000       0.00131300
Si       2.85650000       8.53674000      12.60194000       0.00063400       0.00048100      -0.00143600
Si       9.51128000       1.87992000       5.93960000       0.00107100      -0.00048900       0.00041300
Si       3.95320000      11.48902000       5.94026000      -0.00071200       0.00040200       0.00197400
Si      10.60913000       4.83299000      12.60303000      -0.00064300       0.00050300       0.00070600
Si       0.80070000       2.81265000       4.80981000       0.00119900       0.00003700       0.00137500
Si       7.45388000       9.46673000      11.47334000       0.00085500       0.00030100       0.00014900
Si       4.88147000       0.74973000       2.78012000       0.00048500      -0.00114200       0.00077600
Si      11.53462000       7.40377000       9.44361000       0.00066000      -0.00035700       0.00108200
Si       6.01251000       3.90390000      11.47113000      -0.00025900      -0.00041600      -0.00055600
Si      12.66453000      10.55717000       4.80958000      -0.00018700      -0.00085000       0.00012600
Si       1.92816000       7.40660000       3.87629000      -0.00065100       0.00123400      -0.00062500
Si       8.58407000       0.75057000      10.53901000      -0.00085800      -0.00015500      -0.00120400
Si       7.45162000       3.90371000       1.84812000       0.00177300       0.00251200      -0.00023100
Si       0.79684000      10.56052000       8.51045000       0.00134000       0.00258600       0.00057100
Si       8.58353000      12.61920000       2.78248000      -0.00122000      -0.00236700      -0.00006700
Si       1.93150000       5.96591000       9.44402000      -0.00123300      -0.00121500       0.00030800
Si      12.66557000       2.81044000       8.51189000      -0.00000800      -0.00065600       0.00059500
Si       6.00964000       9.46647000       1.84917000      -0.00043200       0.00013100      -0.00024800
Si      11.53396000       5.96213000       3.87485000      -0.00126900       0.00024700      -0.00075000
Si       4.87915000      12.61896000      10.53718000      -0.00138800      -0.00077100      -0.00120100
O        3.35676000       1.01920000       3.28197000       0.00136400       0.00143300       0.00056700
O       10.00992000       7.67329000       9.94549000       0.00110600       0.00111200       0.00105000
O        3.45668000       5.69713000       9.94515000      -0.00023400      -0.00044800       0.00056800
O       10.10871000      12.35042000       3.28363000      -0.00082700      -0.00034200       0.00041900
O       10.00803000       5.69473000       3.37499000       0.00271100      -0.00060700       0.00048400
O        3.35323000      12.35152000      10.03732000       0.00238100      -0.00052900       0.00038100
O        3.45375000       7.67283000       3.37505000      -0.00182500       0.00089200      -0.00040200
O       10.10966000       1.01678000      10.03778000      -0.00177300       0.00106800      -0.00018500
O        3.35440000       3.30561000       0.98250000       0.00075100       0.00088800       0.00133200
O       10.00755000       9.95966000       7.64600000       0.00109900       0.00044000       0.00086600
O        1.06965000       3.30852000       3.28304000       0.00032800       0.00078600       0.00005300
O        7.72282000       9.96259000       9.94655000       0.00027800       0.00025100       0.00056300
O        3.45696000       3.40798000       7.64664000      -0.00115100      -0.00049500       0.00127400
O       10.10899000      10.06126000       0.98509000      -0.00104700      -0.00061200       0.00142400
O        5.73956000       9.96247000       3.37580000      -0.00049500       0.00072200       0.00018900
O       12.39551000       3.30643000      10.03852000      -0.00062300       0.00080100       0.00045000
O       10.01037000       3.40605000       5.67382000       0.00082900      -0.00117400      -0.00165600
O        3.35559000      10.06287000      12.33613000       0.00080500      -0.00124700      -0.00130900
O        5.74287000       3.40835000       9.94439000      -0.00056500       0.00008400       0.00078100
O       12.39492000      10.06162000       3.28285000      -0.00068900      -0.00023200       0.00029100
O        3.45454000       9.96271000       5.67460000      -0.00221200      -0.00065800      -0.00145600
O       10.11046000       3.30667000      12.33734000      -0.00194100      -0.00006700      -0.00151800
O        7.72226000       3.40827000       3.37478000       0.00050800      -0.00213400       0.00074300
O        1.06746000      10.06509000      10.03712000       0.00043500      -0.00173600       0.00045100
O        5.05469000       1.28117000       1.25302000       0.00119100       0.00202800       0.00058700
O       11.70785000       7.93521000       7.91651000       0.00115000       0.00197800       0.00044700
O        8.40938000      12.08650000       1.25597000      -0.00050700      -0.00011200       0.00086100
O        1.75735000       5.43323000       7.91752000      -0.00053900      -0.00110300      -0.00025000
O        8.41011000       1.28294000      12.06568000      -0.00078500       0.00130000      -0.00022800
O        1.75419000       7.93897000       5.40297000      -0.00085600       0.00038900      -0.00123600
O       11.70983000       5.43069000       5.40163000       0.00143800      -0.00214200       0.00063000
O        5.05505000      12.08753000      12.06396000       0.00150000      -0.00245100       0.00118900
O        1.33723000       1.28790000       4.98956000      -0.00024900       0.00058500      -0.00094900
O        7.99040000       7.94200000      11.65311000       0.00048000      -0.00035200      -0.00092300
O        1.33037000       5.00645000       1.25390000       0.00085900      -0.00020800      -0.00011800
O        7.98354000      11.66052000       7.91742000       0.00127800      -0.00019600      -0.00053500
O        5.47752000       5.42909000      11.65071000      -0.00035300      -0.00009300      -0.00095900
O       12.12955000      12.08236000       4.98916000      -0.00103100       0.00029900      -0.00095600
O        1.33194000       8.36343000      12.06355000       0.00154200       0.00011300       0.00099000
O        7.98674000       1.70659000       5.40121000       0.00131900       0.00022900       0.00057300
O       12.12936000       1.28571000       8.33125000      -0.00152700       0.00020500       0.00120500
O        5.47345000       7.94174000       1.66851000      -0.00155100      -0.00026900       0.00129300
O       12.13345000       8.36187000       1.25502000      -0.00038600       0.00020700       0.00010100
O        5.48142000       1.70859000       7.91657000      -0.00052400       0.00036700      -0.00029200
O        1.33138000      12.08604000       8.33176000      -0.00076800      -0.00162200       0.00110300
O        7.98618000       5.42923000       1.66945000      -0.00021500      -0.00151500       0.00121500
O        5.47834000      11.66307000       5.40332000      -0.00041600      -0.00046200      -0.00092900
O       12.13429000       5.00701000      12.06604000      -0.00173200      -0.00040500       0.00068700
O        3.89415000       1.54079000       5.79805000      -0.00076700       0.00003300      -0.00070100
O       10.54733000       8.19487000      12.46156000      -0.00038600       0.00026300       0.00037700
O        2.92137000       5.17213000      12.46008000       0.00053200      -0.00015400       0.00128900
O        9.57337000      11.82539000       5.79857000       0.00116700       0.00080200      -0.00124300
O        3.88768000      11.82894000       7.52200000       0.00067700      -0.00173600      -0.00259300
O       10.54248000       5.17214000       0.85968000       0.00049800      -0.00178500      -0.00210000
O        2.91745000       8.19379000       0.85824000       0.00041800       0.00037700      -0.00017400
O        9.57337000       1.53772000       7.52100000      -0.00029000       0.00144500      -0.00251900
O        5.86935000       3.83547000       1.51132000      -0.00059400       0.00119100      -0.00036500
O       12.52252000      10.48951000       8.17481000      -0.00032800       0.00136300      -0.00030400
O        1.58897000       5.82490000       3.80823000      -0.00092600      -0.00015300      -0.00056800
O        8.24205000      12.47896000      10.47175000      -0.00062400       0.00142600      -0.00006800
O        0.94081000       2.87955000       8.17619000      -0.00097100      -0.00030900      -0.00083800
O        7.59284000       9.53283000       1.51464000      -0.00123300      -0.00039800      -0.00048800
O        5.21630000      12.47787000       2.84916000       0.00069600       0.00155500      -0.00135100
O       11.87219000       5.82182000       9.51190000       0.00085700       0.00079400      -0.00109000
O       12.52603000       2.87626000       5.14676000       0.00140400      -0.00077900      -0.00015900
O        5.87124000       9.53309000      11.80911000       0.00132600      -0.00080300       0.00009300
O       11.87196000       7.54398000       3.80748000       0.00080800      -0.00095000       0.00007200
O        5.21985000       0.89071000      10.46902000       0.00157600       0.00044300      -0.00029800
O        7.59503000       3.83683000      11.80774000      -0.00053600       0.00159000      -0.00014800
O        0.93909000      10.49284000       5.14503000      -0.00090600       0.00172600      -0.00037000
O        8.24996000       0.89143000       2.84848000      -0.00137700       0.00014800       0.00031500
O        1.59518000       7.54826000       9.51083000      -0.00115500      -0.00037300      -0.00000300
O        5.22039000       2.87154000      12.45935000       0.00036300       0.00059100       0.00162100
O       11.87238000       9.52481000       5.79779000       0.00082000       0.00087700       0.00035400
O        1.59307000       3.84337000       5.79906000      -0.00073200      -0.00047800      -0.00120400
O        8.24623000      10.49746000      12.46257000      -0.00008300       0.00001500       0.00029700
O        8.24457000       2.87240000       0.85980000      -0.00085200       0.00003900      -0.00112900
O        1.58981000       9.52922000       7.52216000      -0.00056200      -0.00038400      -0.00217500
O       11.87469000       3.84183000       7.52193000      -0.00094000       0.00066500      -0.00203500
O        5.21873000      10.49788000       0.85919000      -0.00006700      -0.00011200       0.00010600
O        2.92375000      12.47755000       5.14501000      -0.00086400       0.00158700       0.00000700
O        9.57969000       5.82155000      11.80777000      -0.00023100      -0.00031000       0.00080400
O       12.52254000       5.16437000       2.84778000       0.00253700      -0.00036900      -0.00145000
O        5.86773000      11.82120000       9.51009000       0.00224900      -0.00018800      -0.00129000
O        3.88742000       7.54777000      11.80923000       0.00044500      -0.00075200      -0.00102500
O       10.54222000       0.89094000       5.14690000       0.00006400       0.00007400      -0.00075300
O        5.87233000       1.54576000       3.80619000       0.00208700      -0.00064500       0.00133300
O       12.52551000       8.19977000      10.46968000       0.00155700      -0.00068200       0.00138900
O        3.88443000       5.82057000       1.51245000      -0.00018000      -0.00058600      -0.00039800
O       10.53759000      12.47460000       8.17598000       0.00012900       0.00028700      -0.00033700
O        0.94025000       8.20490000       2.84901000      -0.00056800      -0.00088700      -0.00079900
O        7.59615000       1.54885000       9.51175000      -0.00049800      -0.00056900      -0.00088300
O        2.92584000       0.89359000       8.17327000       0.00113300       0.00267900      -0.00117500
O        9.57786000       7.54689000       1.51170000       0.00071900       0.00108700      -0.00040400
O        7.59329000      11.82267000       3.80897000       0.00019600       0.00050400       0.00067000
O        0.94126000       5.16941000      10.47051000      -0.00097600      -0.00006300       0.00118900
