144
Lattice="14.855146206 -0.000840337 3.2525e-05 -0.00083896 14.838861276 8.998e-06 3.2444e-05 8.507e-06 14.866042018" Properties=species:S:1:pos:R:3:forces:R:3 stress="-0.0037436322076682747 3.900943203677037e-06 6.116678943365592e-07 3.900943203677037e-06 -0.003739868577665367 -8.987773141271891e-07 6.116678943365592e-07 -8.987773141271891e-07 -0.003750504109215872" free_energy=-965.31503754 energy=-965.31503754 pbc="T T T"
Si       3.55868000       1.46441000       5.88218000       0.00096500      -0.00022800       0.00041700
Si      10.98585000       8.88343000      13.31522000       0.00072800      -0.00049700       0.00052600
Si       3.54864000       5.77728000      13.31532000      -0.00036200      -0.00030800      -0.00007100
Si      10.97577000      13.19628000       5.88233000      -0.00053400      -0.00008200      -0.00002400
Si       3.55473000      13.19850000       8.98094000       0.00055000      -0.00153300       0.00019500
Si      10.98269000       5.77864000       1.54795000       0.00041500      -0.00173700      -0.00009100
Si       3.55044000       8.88283000       1.54753000      -0.00037600       0.00087900      -0.00013100
Si      10.97845000       1.46299000       8.98056000      -0.00059400       0.00083700      -0.00015800
Si       5.71479000       3.61831000       1.54848000       0.00154700      -0.00086800      -0.00027100
Si      13.14198000      11.03732000       8.98152000       0.00124500      -0.00063400      -0.00026500
Si       1.39019000       5.78007000       3.71331000      -0.00163700      -0.00024300      -0.00023900
Si       8.81737000      13.19909000      11.14637000      -0.00148800       0.00005200      -0.00012500
Si       1.39129000       3.62216000       8.98166000      -0.00021000       0.00022100      -0.00007200
Si       8.81843000      11.04115000       1.54867000      -0.00018600       0.00030400      -0.00004600
Si       5.71507000      13.19767000       3.71709000      -0.00050700      -0.00048900       0.00099600
Si      13.14306000       5.77783000      11.15013000      -0.00065700      -0.00067400       0.00111700
Si      13.14565000       3.62043000       5.88127000      -0.00014000       0.00141300      -0.00034100
Si       5.71767000      11.04029000      13.31427000       0.00005900       0.00152100      -0.00027200
Si      13.14471000       8.88091000       3.71310000       0.00043200      -0.00111000      -0.00042600
Si       5.71758000       1.46191000      11.14610000       0.00067700      -0.00097300      -0.00033700
Si       8.81673000       3.62045000      13.31456000       0.00054800       0.00010600       0.00108000
Si       1.38873000      11.04031000       5.88152000       0.00030500      -0.00002700       0.00103300
Si       8.81953000       1.46332000       3.71661000      -0.00028400       0.00161200      -0.00080000
Si       1.39155000       8.88317000      11.14962000      -0.00028200       0.00149200      -0.00072900
Si       3.54884000       5.77757000       1.54809000      -0.00039000      -0.00044800       0.00030300
Si      10.97601000      13.19659000       8.98113000      -0.00056300      -0.00019600       0.00026200
Si       3.55814000       1.46410000       8.98140000       0.00120200      -0.00094500       0.00044500
Si      10.98528000       8.88312000       1.54841000       0.00100900      -0.00120200       0.00034800
Si       3.55101000       8.88260000      13.31472000      -0.00027600       0.00120900      -0.00013000
Si      10.97899000       1.46274000       5.88171000      -0.00047900       0.00120500      -0.00011100
Si       3.55461000      13.19864000       5.88214000       0.00013100      -0.00121100       0.00128100
Si      10.98261000       5.77880000      13.31520000      -0.00017600      -0.00140200       0.00152700
Si       1.39183000       3.62249000       5.88133000      -0.00031000       0.00131800       0.00027800
Si       8.81900000      11.04151000      13.31437000      -0.00025300       0.00135600       0.00027600
Si       5.71784000       1.46230000       3.71754000       0.00090000       0.00016800      -0.00009100
Si      13.14501000       8.88131000      11.15058000       0.00064200       0.00012700       0.00001900
Si       5.71461000       3.61798000      13.31497000       0.00103600      -0.00169000       0.00031200
Si      13.14176000      11.03698000       5.88198000       0.00075200      -0.00148800       0.00026600
Si       1.39131000       8.88365000       3.71254000      -0.00073900       0.00046000       0.00008500
Si       8.81932000       1.46381000      11.14557000      -0.00067700       0.00065900       0.00015400
Si       8.81699000       3.61987000       1.54770000       0.00075000       0.00064700      -0.00073100
Si       1.38903000      11.03972000       8.98071000       0.00061900       0.00066300      -0.00070200
Si       8.81683000      13.19852000       3.71717000      -0.00101000       0.00050300       0.00020400
Si       1.38968000       5.77951000      11.15017000      -0.00106500       0.00030000       0.00021000
Si      13.14523000       3.62094000       8.98125000      -0.00021300       0.00061200      -0.00046400
Si       5.71722000      11.04079000       1.54821000      -0.00002900       0.00081300      -0.00046100
Si      13.14335000       5.77756000       3.71277000      -0.00065200      -0.00112800      -0.00130800
Si       5.71539000      13.19742000      11.14577000      -0.00042600      -0.00094400      -0.00108800
O        4.84117000       1.90047000       5.00194000      -0.00076300       0.00113900      -0.00000400
O       12.26834000       9.31947000      12.43500000      -0.00059700       0.00113200      -0.00020400
O        2.26656000       5.34155000      12.43433000       0.00039600      -0.00037100       0.00047500
O        9.69370000      12.76056000       5.00132000       0.00042900      -0.00042400       0.00048100
O       12.26406000       5.34096000       2.42955000       0.00025500      -0.00152400       0.00024400
O        4.83612000      12.76086000       9.86252000      -0.00004100      -0.00161600       0.00008300
O        2.26886000       9.32108000       2.42847000       0.00045100       0.00014500      -0.00075600
O        9.69687000       1.90124000       9.86150000       0.00046500       0.00016700      -0.00079500
O        4.83842000       4.90527000       1.97997000      -0.00085100       0.00052000      -0.00124800
O       12.26560000      12.32430000       9.41298000      -0.00063500       0.00026000      -0.00111900
O        1.82322000       4.90746000       5.00214000       0.00076700       0.00000000       0.00039700
O        9.25039000      12.32648000      12.43521000       0.00077300      -0.00008800       0.00046100
O        2.26857000       2.33609000       9.41335000      -0.00043800       0.00050300      -0.00107500
O        9.69569000       9.75509000       1.98037000      -0.00041500       0.00050600      -0.00108900
O        5.28332000      12.32474000       2.42792000       0.00023200       0.00001900      -0.00005000
O       12.71133000       4.90489000       9.86096000       0.00024800       0.00001500      -0.00004600
O       12.27059000       2.33231000       5.45109000       0.00016300      -0.00066400       0.00110400
O        4.84262000       9.75216000      12.88412000      -0.00000100      -0.00080100       0.00110100
O        5.28342000       2.33374000      12.43496000      -0.00000300      -0.00030600       0.00043100
O       12.71056000       9.75275000       5.00196000       0.00008000      -0.00028100       0.00043100
O        2.26234000      12.32979000       5.45183000      -0.00095800       0.00114600       0.00120400
O        9.69030000       4.90998000      12.88492000      -0.00072700       0.00112300       0.00091900
O        9.25103000       2.33618000       2.42744000      -0.00052500      -0.00070200       0.00068700
O        1.82305000       9.75603000       9.86044000      -0.00055300      -0.00060700       0.00058300
O        5.28317000       2.33451000       2.42900000       0.00023100      -0.00001900       0.00002300
O       12.71034000       9.75353000       9.86205000       0.00028900      -0.00005400       0.00007000
O        9.24960000      12.32577000       2.42839000      -0.00011000      -0.00016400       0.00011400
O        1.82246000       4.90677000       9.86140000      -0.00015300      -0.00008000       0.00020400
O        9.25136000       2.33761000      12.43394000      -0.00022300      -0.00008900      -0.00116100
O        1.82334000       9.75744000       5.00092000      -0.00021800      -0.00005500      -0.00111700
O       12.71093000       4.90368000       5.00102000      -0.00015200      -0.00050500       0.00067700
O        5.28294000      12.32353000      12.43401000      -0.00017400      -0.00053200       0.00066800
O        2.26922000       2.33646000       5.44979000      -0.00002100       0.00027200       0.00215100
O        9.69639000       9.75548000      12.88281000      -0.00001400       0.00029600       0.00215800
O        2.26694000       5.34166000       2.42925000       0.00071000      -0.00034200      -0.00076300
O        9.69413000      12.76067000       9.86232000       0.00063800      -0.00034400      -0.00067500
O        4.83795000       4.90466000      12.88334000      -0.00121100       0.00005400       0.00108700
O       12.26508000      12.32366000       5.45036000      -0.00096600      -0.00016000       0.00106300
O        2.27046000       9.32123000      12.43253000       0.00101800       0.00066900       0.00025900
O        9.69843000       1.90137000       4.99952000       0.00104900       0.00069600       0.00030800
O       12.26931000       2.33344000       9.41174000      -0.00019400      -0.00016100      -0.00110100
O        4.84130000       9.75330000       1.97869000      -0.00038100      -0.00035000      -0.00111200
O       12.26737000       9.31913000       2.42920000      -0.00016700       0.00118200       0.00007700
O        4.84024000       1.90012000       9.86220000      -0.00032800       0.00115100      -0.00006700
O        2.26313000      12.32863000       9.41126000      -0.00060200       0.00024700      -0.00077200
O        9.69108000       4.90879000       1.97824000      -0.00054900       0.00030600      -0.00064700
O        4.83519000      12.76035000       4.99972000      -0.00057300      -0.00084600      -0.00029900
O       12.26317000       5.34052000      12.43275000      -0.00019700      -0.00097400      -0.00055500
O        3.94787000       1.72562000       7.43189000       0.00163300       0.00080400      -0.00024000
O       11.37503000       9.14467000      14.86494000       0.00168300       0.00080100      -0.00025000
O        3.15921000       5.51470000      14.86478000      -0.00111100       0.00007400      -0.00037500
O       10.58633000      12.93370000       7.43179000      -0.00111100       0.00004400      -0.00037600
O        3.94521000      12.93636000       7.43151000       0.00056800      -0.00109800      -0.00069000
O       11.37322000       5.51648000      14.86457000       0.00065400      -0.00093400      -0.00083500
O        3.16079000       9.14495000      14.86408000      -0.00074000       0.00007400      -0.00025300
O       10.58878000       1.72510000       7.43107000      -0.00074800       0.00010000      -0.00025200
O        7.26585000       4.00554000       1.80372000      -0.00157600       0.00028300      -0.00119500
O       14.69303000      11.42456000       9.23676000      -0.00133400       0.00024400      -0.00124200
O        1.64963000       7.33186000       4.09485000      -0.00116800      -0.00014700      -0.00077600
O        9.07681000      14.75088000      11.52789000      -0.00114300      -0.00026700      -0.00074100
O       14.69591000       3.23306000       9.23807000       0.00084500       0.00002500      -0.00069900
O        7.26790000      10.65291000       1.80504000       0.00079300      -0.00000400      -0.00071000
O        5.45800000      14.74961000       3.33507000       0.00129100       0.00006800       0.00100900
O       12.88600000       7.32976000      10.76810000       0.00092900       0.00027700       0.00112100
O       14.69652000       3.23352000       5.62461000       0.00131900       0.00089400       0.00065300
O        7.26854000      10.65338000      13.05762000       0.00124200       0.00088700       0.00064200
O       12.88615000       7.32925000       4.09550000       0.00121200       0.00062100      -0.00205900
O        5.45819000      14.74911000      11.52853000       0.00115900       0.00041800      -0.00211400
O        7.26543000       4.00562000      13.05923000      -0.00147000      -0.00014500       0.00068400
O       14.69258000      11.42463000       5.62623000      -0.00129300      -0.00012700       0.00069300
O        9.07635000      14.75010000       3.33522000      -0.00102300      -0.00063400       0.00103300
O        1.64921000       7.33110000      10.76823000      -0.00105100      -0.00050600       0.00104600
O        5.45547000       3.22800000      14.86478000      -0.00093400      -0.00153200       0.00007800
O       12.88262000      10.64699000       7.43178000      -0.00043000      -0.00139700      -0.00018100
O        1.65012000       4.01173000       7.43158000       0.00027600       0.00153100       0.00055200
O        9.07730000      11.43072000      14.86463000       0.00026400       0.00154800       0.00051100
O        9.07693000       3.22972000      14.86406000      -0.00003200      -0.00091800      -0.00066200
O        1.64892000      10.64958000       7.43102000       0.00001100      -0.00080900      -0.00058300
O       12.88726000       4.01097000       7.43117000       0.00046000       0.00092100       0.00040700
O        5.45928000      11.43085000      14.86417000       0.00044100       0.00086300       0.00033800
O        3.17460000      14.75133000       5.62785000       0.00092000       0.00095500       0.00110800
O       10.60260000       7.33148000      13.06092000       0.00097100       0.00120900       0.00108200
O       14.69452000       5.51957000       3.32674000       0.00113700      -0.00202200      -0.00018600
O        7.26656000      12.93942000      10.75977000       0.00101000      -0.00201700      -0.00021300
O        3.93109000       7.32958000      13.06135000      -0.00035600      -0.00069300       0.00039100
O       11.35823000      14.74858000       5.62836000      -0.00031400      -0.00079400       0.00036200
O        7.26876000       1.72116000       4.10363000      -0.00040700       0.00116400       0.00086900
O       14.69593000       9.14017000      11.53668000      -0.00033100       0.00116000       0.00082400
O        3.93104000       7.33003000       1.80167000      -0.00037800      -0.00027800      -0.00082300
O       11.35820000      14.74905000       9.23471000      -0.00035200      -0.00039100      -0.00082700
O       14.69540000       9.14027000       3.32640000       0.00000000       0.00097200      -0.00086000
O        7.26826000       1.72127000      10.75940000      -0.00014700       0.00094700      -0.00087800
O        3.17393000      14.75096000       9.23567000       0.00115100       0.00118700      -0.00070100
O       10.60193000       7.33111000       1.80265000       0.00113400       0.00145700      -0.00064500
O        7.26599000      12.93922000       4.10404000       0.00035100      -0.00137700       0.00065100
O       14.69399000       5.51938000      11.53708000       0.00054300      -0.00134400       0.00065800
