144
Lattice="14.874536674 -0.00089752 -0.000682415 -0.000898983 14.886262372 0.000195524 -0.000682013 0.000194346 14.921830875" Properties=species:S:1:pos:R:3:forces:R:3 stress="-0.0012464980290392714 -5.529977085532567e-06 3.2580677637110607e-06 -5.529977085532567e-06 -0.0012498871684946261 2.0284904659120586e-06 3.2580677637110607e-06 2.0284904659120586e-06 -0.0012481520289576305" free_energy=-965.40965014 energy=-965.40965014 pbc="T T T"
Si       3.80933000       1.46075000       5.90381000      -0.00089400       0.00122900       0.00086400
Si      11.24579000       8.90353000      13.36446000      -0.00068000       0.00175200       0.00120200
Si       3.79685000       5.79900000      13.36596000      -0.00009900       0.00099400      -0.00052400
Si      11.23393000      13.24164000       5.90484000       0.00002100       0.00078200      -0.00066600
Si       3.80857000      13.24346000       8.99869000       0.00156100       0.00147300      -0.00088600
Si      11.24662000       5.79983000       1.53735000       0.00124700       0.00145900      -0.00057700
Si       3.79657000       8.90193000       1.53813000      -0.00103000       0.00103000      -0.00055800
Si      11.23394000       1.45845000       8.99862000      -0.00164200       0.00119500      -0.00047600
Si       5.97089000       3.62371000       1.53892000      -0.00093700       0.00015100      -0.00105300
Si      13.40736000      11.06644000       8.99958000      -0.00064000      -0.00083000      -0.00146500
Si       1.63700000       5.80205000       3.72530000       0.00114700      -0.00091800       0.00242500
Si       9.07344000      13.24484000      11.18599000       0.00081600      -0.00120200       0.00346300
Si       1.63496000       3.63472000       9.00066000       0.00097600      -0.00033300      -0.00195900
Si       9.07210000      11.07729000       1.53954000       0.00044400      -0.00120500      -0.00235600
Si       5.96857000      13.24300000       3.71971000      -0.00024700       0.00042300      -0.00143000
Si      13.40593000       5.79953000      11.18017000       0.00064800       0.00084700      -0.00098000
Si      13.40783000       3.63265000       5.90277000       0.00080100      -0.00092600       0.00100100
Si       5.96984000      11.07626000      13.36411000       0.00048400      -0.00072100       0.00214100
Si      13.40519000       8.89947000       3.72522000      -0.00090900       0.00163800      -0.00059600
Si       5.96799000       1.45686000      11.18644000      -0.00111500       0.00091200      -0.00029700
Si       9.07262000       3.62411000      13.36419000      -0.00117200      -0.00072600      -0.00148500
Si       1.63521000      11.06760000       5.90372000      -0.00107400      -0.00096100      -0.00172500
Si       9.07226000       1.45797000       3.71976000       0.00126900      -0.00052900       0.00140100
Si       1.63420000       8.90164000      11.18112000       0.00140000      -0.00104000       0.00192700
Si       3.79856000       5.80018000       1.53927000      -0.00054900       0.00047400      -0.00139700
Si      11.23491000      13.24300000       8.99991000      -0.00033600       0.00003300      -0.00139900
Si       3.80770000       1.45859000       8.99968000       0.00086000       0.00235200      -0.00191700
Si      11.24487000       8.90119000       1.53853000       0.00080500       0.00217500      -0.00145300
Si       3.79725000       8.90112000      13.36462000      -0.00144100       0.00012000       0.00004100
Si      11.23536000       1.45744000       5.90324000      -0.00140400      -0.00004400      -0.00025000
Si       3.80721000      13.24424000       5.90365000       0.00006900       0.00201000      -0.00096800
Si      11.24454000       5.80082000      13.36409000       0.00025300       0.00181800      -0.00097900
Si       1.63657000       3.63588000       5.90465000       0.00014300      -0.00210800       0.00148500
Si       9.07301000      11.07864000      13.36527000      -0.00028100      -0.00267500       0.00218800
Si       5.97012000       1.45959000       3.72040000      -0.00081200       0.00132300       0.00144400
Si      13.40658000       8.90238000      11.18109000      -0.00004900       0.00069700       0.00165300
Si       5.96830000       3.62214000      13.36513000      -0.00083500       0.00067900      -0.00092700
Si      13.40549000      11.06468000       5.90399000      -0.00042100      -0.00005900      -0.00166600
Si       1.63549000       8.90208000       3.72398000      -0.00163100      -0.00066000       0.00032400
Si       9.07283000       1.45861000      11.18439000      -0.00148900      -0.00019200       0.00121400
Si       9.07428000       3.62205000       1.53770000      -0.00066100      -0.00160600       0.00015000
Si       1.63614000      11.06575000       8.99913000      -0.00095500      -0.00200600       0.00072700
Si       9.07058000      13.24209000       3.72134000       0.00269400      -0.00003000      -0.00143300
Si       1.63341000       5.79948000      11.18255000       0.00275900       0.00072100      -0.00072900
Si      13.40670000       3.63459000       8.99876000       0.00171500       0.00096200      -0.00176000
Si       5.96939000      11.07806000       1.53837000       0.00170600       0.00010400      -0.00194500
Si      13.40743000       5.79985000       3.72380000       0.00007200       0.00039600       0.00167400
Si       5.96935000      13.24351000      11.18520000      -0.00020800      -0.00035700       0.00234000
O        5.08349000       1.88504000       5.00377000       0.00241000       0.00040000      -0.00322500
O       12.52003000       9.32777000      12.46452000       0.00218900       0.00043000      -0.00307200
O        2.52170000       5.37765000      12.46579000      -0.00093700      -0.00048900      -0.00061100
O        9.95889000      12.82024000       5.00453000      -0.00087700      -0.00051100      -0.00042300
O       12.52263000       5.38110000       2.43734000       0.00001300      -0.00103400      -0.00127700
O        5.08454000      12.82475000       9.89876000      -0.00021500      -0.00107800      -0.00155500
O        2.52009000       9.32155000       2.43728000       0.00036100      -0.00110200       0.00061100
O        9.95741000       1.87815000       9.89771000       0.00113100      -0.00134000      -0.00009400
O        5.08466000       4.91136000       1.95173000       0.00040500       0.00007500      -0.00128900
O       12.52105000      12.35409000       9.41206000      -0.00041800       0.00091100      -0.00111200
O        2.06229000       4.90968000       5.00478000       0.00025500       0.00136000      -0.00307600
O        9.49866000      12.35253000      12.46556000       0.00050000       0.00241700      -0.00427700
O        2.52153000       2.34703000       9.41242000       0.00036300      -0.00120600      -0.00196200
O        9.95874000       9.78965000       1.95132000       0.00036900      -0.00111500      -0.00194000
O        5.54640000      12.35381000       2.43701000       0.00005400       0.00179400       0.00302800
O       12.98379000       4.91033000       9.89749000       0.00004000       0.00054800       0.00182900
O       12.52411000       2.34272000       5.49261000      -0.00093000       0.00110200       0.00272500
O        5.08602000       9.78639000      12.95403000      -0.00107200       0.00077500       0.00253500
O        5.54056000       2.34882000      12.46533000       0.00035900      -0.00011900       0.00045700
O       12.97764000       9.79148000       5.00403000       0.00029500       0.00031400       0.00086200
O        2.51714000      12.35947000       5.49551000       0.00153800      -0.00092400      -0.00030400
O        9.95450000       4.91599000      12.95594000       0.00183300      -0.00057600      -0.00037300
O        9.49636000       2.34713000       2.43791000       0.00013100       0.00243600      -0.00264400
O        2.05829000       9.79078000       9.89927000       0.00019500       0.00341300      -0.00352300
O        5.54625000       2.34938000       2.43887000      -0.00032700       0.00138100      -0.00084500
O       12.98261000       9.79222000       9.89964000      -0.00017600       0.00192200      -0.00162600
O        9.49529000      12.35093000       2.44084000       0.00048900       0.00099900       0.00285700
O        2.05811000       4.90830000       9.90209000       0.00049800      -0.00010700       0.00163700
O        9.50078000       2.35280000      12.46158000      -0.00124500      -0.00025500       0.00172200
O        2.06345000       9.79626000       5.00116000      -0.00115800       0.00033000       0.00233200
O       12.98097000       4.90440000       5.00065000      -0.00088100       0.00159100      -0.00251200
O        5.54294000      12.34803000      12.46207000      -0.00063500       0.00238800      -0.00314500
O        2.52158000       2.34732000       5.49268000      -0.00000100      -0.00080600       0.00220000
O        9.95815000       9.79020000      12.95325000       0.00029300      -0.00087900       0.00214000
O        2.52336000       5.38092000       2.44041000       0.00013400       0.00003700      -0.00001700
O        9.95983000      12.82361000       9.90117000       0.00063100       0.00005400      -0.00053700
O        5.08375000       4.91141000      12.95428000       0.00002100      -0.00077700       0.00116900
O       12.52085000      12.35395000       5.49345000      -0.00062200       0.00019500       0.00090100
O        2.52370000       9.32448000      12.46327000      -0.00089800       0.00045100      -0.00082000
O        9.96178000       1.88078000       5.00191000      -0.00094900       0.00051600      -0.00081800
O       12.51897000       2.34823000       9.41215000      -0.00161000      -0.00050200      -0.00152300
O        5.08159000       9.79171000       1.95168000      -0.00166200      -0.00049200      -0.00156600
O       12.51999000       9.32071000       2.43959000       0.00008200       0.00073400       0.00112600
O        5.08272000       1.87811000       9.90086000      -0.00002300       0.00077700       0.00115400
O        2.52452000      12.35199000       9.41161000       0.00052000       0.00035500      -0.00081300
O        9.96260000       4.90831000       1.95026000       0.00042000       0.00019000      -0.00093500
O        5.07896000      12.81803000       5.00102000       0.00194800       0.00057100       0.00026800
O       12.51631000       5.37460000      12.46148000       0.00150700       0.00048900       0.00075900
O        4.21842000       1.71382000       7.45212000       0.00192400      -0.00146000       0.00075200
O       11.65482000       9.15658000      14.91280000       0.00200100      -0.00154100       0.00003700
O        3.38700000       5.54389000      14.91371000      -0.00100500       0.00122200       0.00205000
O       10.82375000      12.98678000       7.45255000      -0.00098000       0.00105500       0.00266500
O        4.21932000      12.98959000       7.45082000       0.00088000      -0.00036700       0.00146600
O       11.65660000       5.54626000      14.91128000       0.00064900      -0.00016800       0.00097000
O        3.38602000       9.15629000      14.91194000      -0.00309200      -0.00207600       0.00234600
O       10.82416000       1.71257000       7.45057000      -0.00324900      -0.00209300       0.00275500
O        7.52292000       4.02045000       1.78682000       0.00153300       0.00095800       0.00098900
O        0.08481000      11.46415000       9.24836000       0.00113600       0.00096400       0.00130700
O        1.89232000       7.35237000       4.12430000      -0.00002000      -0.00166900       0.00122800
O        9.32879000      14.79517000      11.58490000       0.00003200      -0.00188300       0.00118700
O        0.08348000       3.23747000       9.24917000      -0.00171100      -0.00021500      -0.00021900
O        7.52065000      10.68001000       1.78824000      -0.00128000      -0.00006800       0.00004300
O        5.71506000      14.79461000       3.32492000      -0.00281500      -0.00072200      -0.00110200
O       13.15246000       7.35113000      10.78534000      -0.00289700      -0.00037600      -0.00104100
O        0.08542000       3.23981000       5.65369000      -0.00188200       0.00017300       0.00075500
O        7.52190000      10.68242000      13.11416000      -0.00127500       0.00035200       0.00093900
O       13.15109000       7.34931000       4.12513000      -0.00133600      -0.00295600      -0.00044800
O        5.71299000      14.79295000      11.58654000      -0.00168500      -0.00190500      -0.00044800
O        7.52015000       4.01607000      13.11376000       0.00149600       0.00088300      -0.00098000
O        0.08277000      11.45955000       5.65307000       0.00173800       0.00095800      -0.00105200
O        9.32373000      14.79297000       3.32333000       0.00360400      -0.00079400      -0.00025100
O        1.88658000       7.35036000      10.78453000       0.00360000      -0.00101800      -0.00030100
O        5.71428000       3.21388000      14.91328000       0.00183200      -0.00034400       0.00115600
O       13.15171000      10.65617000       7.45210000       0.00167600       0.00004300       0.00195800
O        1.89060000       4.04455000       7.45283000      -0.00035800       0.00135400       0.00105300
O        9.32689000      11.48723000      14.91350000      -0.00016600       0.00131400       0.00091600
O        9.32821000       3.21310000      14.91149000      -0.00121400       0.00039200       0.00143700
O        1.89062000      10.65662000       7.45106000      -0.00212100       0.00044500       0.00136800
O       13.15249000       4.04268000       7.45039000       0.00095900       0.00253000       0.00176100
O        5.71472000      11.48631000      14.91178000       0.00097800       0.00248000       0.00111600
O        3.41187000      14.79591000       5.65312000       0.00072900      -0.00398400      -0.00039800
O       10.84916000       7.35246000      13.11354000       0.00069500      -0.00420400      -0.00058200
O        0.08512000       5.54999000       3.33154000      -0.00108400      -0.00038800       0.00043800
O        7.52157000      12.99278000      10.79220000      -0.00055200      -0.00034000       0.00036300
O        4.19532000       7.34994000      13.11624000      -0.00078500      -0.00059700      -0.00003500
O       11.63254000      14.79252000       5.65502000      -0.00090800      -0.00042500      -0.00000400
O        7.52144000       1.71251000       4.11556000      -0.00074000      -0.00189300      -0.00171100
O        0.08338000       9.15619000      11.57689000      -0.00139400      -0.00187200      -0.00179500
O        4.19851000       7.35143000       1.78620000       0.00041700      -0.00090700       0.00086000
O       11.63490000      14.79422000       9.24700000       0.00052300      -0.00086400       0.00075200
O        0.08273000       9.15253000       3.33301000       0.00048900      -0.00120500       0.00045600
O        7.52005000       1.70902000      10.79345000       0.00027400      -0.00118800       0.00039500
O        3.40640000      14.79390000       9.24738000       0.00133600      -0.00405800       0.00012100
O       10.84445000       7.35025000       1.78613000       0.00136400      -0.00391900       0.00006300
O        7.51934000      12.98845000       4.11657000      -0.00077000       0.00307200      -0.00071300
O        0.08217000       5.54586000      11.57777000      -0.00127800       0.00303500      -0.00083100
