144
Lattice="13.20404162 -0.000437157 0.000250177 -0.000439257 13.20403871 0.000614659 0.000251874 0.000615094 13.203565092" Properties=species:S:1:pos:R:3:forces:R:3 stress="-0.01061661353634452 -4.456437515880646e-06 -2.20325272143679e-06 -4.456437515880646e-06 -0.010617999151370466 -3.3329658732216603e-06 -2.20325272143679e-06 -3.3329658732216603e-06 -0.010616601053326269" free_energy=-964.26248579 energy=-964.26248579 pbc="T T T"
Si       2.74844000       0.68551000       4.74792000       0.00036400       0.00091700      -0.00009400
Si       9.35038000       7.28761000      11.35014000      -0.00065700       0.00178400      -0.00131100
Si       3.87984000       5.91117000      11.34931000       0.00019700      -0.00230700       0.00035500
Si      10.48152000      12.51264000       4.74800000      -0.00107200      -0.00150400       0.00146500
Si       2.74831000      12.51251000       8.45841000       0.00180800      -0.00035200       0.00024100
Si       9.35044000       5.90998000       1.85645000       0.00089900      -0.00098700       0.00142400
Si       3.87957000       7.28673000       1.85581000      -0.00026500       0.00099900      -0.00117600
Si      10.48192000       0.68481000       8.45746000      -0.00138200       0.00023900      -0.00196500
Si       4.75962000       2.73245000       0.68879000       0.00076700       0.00025800       0.00074000
Si      11.36152000       9.33453000       7.29099000      -0.00034800      -0.00087700       0.00187800
Si       0.70041000       4.74363000       2.73579000      -0.00014600      -0.00026000       0.00138200
Si       7.30230000      11.34574000       9.33803000       0.00049000      -0.00107600       0.00030600
Si       1.86859000       3.86392000       7.29059000       0.00024400      -0.00059500      -0.00006500
Si       8.47028000      10.46543000       0.68925000      -0.00088700      -0.00161600      -0.00076900
Si       5.92608000      11.34551000       3.86703000      -0.00143200       0.00259600      -0.00087600
Si      12.52844000       4.74362000      10.46862000      -0.00097900       0.00285100      -0.00206600
Si      11.36153000       3.86337000       5.91487000       0.00025900       0.00105700      -0.00233300
Si       4.75941000      10.46592000      12.51683000       0.00140600      -0.00017300      -0.00161800
Si      12.52885000       8.45386000       2.73673000      -0.00203900      -0.00098800       0.00158700
Si       5.92714000       1.85237000       9.33808000      -0.00227000       0.00030200       0.00068400
Si       8.47082000       2.73303000      12.51573000      -0.00189400       0.00155400      -0.00048000
Si       1.86847000       9.33495000       5.91414000      -0.00069600       0.00059200      -0.00081900
Si       7.30321000       1.85109000       3.86733000       0.00019200       0.00039300      -0.00023300
Si       0.70110000       8.45364000      10.46928000      -0.00079800      -0.00071300      -0.00124800
Si       2.74835000       4.74333000       0.68880000       0.00089300      -0.00057600       0.00049500
Si       9.35027000      11.34544000       7.29106000       0.00012700      -0.00158600       0.00121900
Si       3.87939000       1.85195000       7.29113000       0.00000600      -0.00030600       0.00046700
Si      10.48109000       8.45345000       0.68979000      -0.00123500      -0.00154400      -0.00041000
Si       2.74863000       8.45446000      12.51642000       0.00157800      -0.00023400      -0.00155300
Si       9.35073000       1.85192000       5.91449000       0.00064100       0.00093800      -0.00195400
Si       3.87960000      11.34631000       5.91489000      -0.00050700       0.00085000      -0.00110600
Si      10.48198000       4.74438000      12.51649000      -0.00210200       0.00207500      -0.00033400
Si       0.70083000       2.73266000       4.74775000       0.00019400       0.00016800       0.00042800
Si       7.30276000       9.33478000      11.34998000       0.00129900      -0.00099200      -0.00045200
Si       4.75942000       0.68469000       2.73635000       0.00017700       0.00157700       0.00039600
Si      11.36134000       7.28680000       9.33857000      -0.00126500       0.00283400      -0.00084100
Si       5.92687000       3.86352000      11.34894000      -0.00156600       0.00006300       0.00101700
Si      12.52856000      10.46501000       4.74761000      -0.00137100      -0.00104700       0.00193800
Si       1.86837000       7.28735000       3.86692000      -0.00080300       0.00026000      -0.00077300
Si       8.47070000       0.68542000      10.46855000      -0.00176600      -0.00015300      -0.00167400
Si       7.30266000       3.86283000       1.85597000       0.00027200       0.00000200       0.00017400
Si       0.70054000      10.46536000       8.45792000      -0.00081300      -0.00116600      -0.00074700
Si       8.47057000      12.51250000       2.73643000      -0.00055700      -0.00046400       0.00117900
Si       1.86888000       5.91101000       9.33776000       0.00083900      -0.00089000      -0.00003800
Si      12.52849000       2.73260000       8.45782000      -0.00074400       0.00190300      -0.00237800
Si       5.92612000       9.33455000       1.85619000      -0.00116200       0.00097600      -0.00129200
Si      11.36179000       5.91049000       3.86723000      -0.00009000      -0.00169000       0.00096800
Si       4.75965000      12.51304000      10.46920000       0.00123200      -0.00090200      -0.00004600
O        3.22519000       0.94717000       3.21347000       0.00072600       0.00107100       0.00079100
O        9.82710000       7.54929000       9.81568000       0.00101400       0.00083200       0.00104200
O        3.40327000       5.64938000       9.81482000      -0.00135400      -0.00151700       0.00032900
O       10.00495000      12.25087000       3.21351000      -0.00110900      -0.00162900       0.00025300
O        9.82724000       5.64866000       3.39091000       0.00052000      -0.00147400      -0.00094900
O        3.22511000      12.25121000       9.99286000       0.00032200      -0.00158400      -0.00075100
O        3.40294000       7.54832000       3.39022000      -0.00088400       0.00125200      -0.00080800
O       10.00526000       0.94640000       9.99186000      -0.00058500       0.00132400      -0.00054300
O        3.22506000       3.20895000       0.95045000       0.00051900       0.00107200       0.00198100
O        9.82697000       9.81103000       7.55271000       0.00063200       0.00140100       0.00171500
O        0.96153000       3.20926000       3.21304000       0.00151000       0.00085700       0.00048000
O        7.56346000       9.81136000       9.81526000       0.00129600       0.00128400       0.00055400
O        3.40265000       3.38631000       7.55296000      -0.00087100      -0.00068200       0.00101100
O       10.00433000       9.98780000       0.95161000      -0.00067200      -0.00043700       0.00113200
O        5.66417000       9.81099000       3.39071000      -0.00189300       0.00128600      -0.00155600
O       12.26654000       3.20910000       9.99230000      -0.00185600       0.00147700      -0.00119800
O        9.82718000       3.38647000       5.65271000       0.00069900      -0.00118200      -0.00144700
O        3.22508000       9.98901000      12.25467000       0.00048200      -0.00086300      -0.00156100
O        5.66430000       3.38666000       9.81474000      -0.00085500      -0.00121300       0.00120500
O       12.26610000       9.98814000       3.21341000      -0.00141700      -0.00090500       0.00106100
O        3.40292000       9.81187000       5.65278000      -0.00126900       0.00040800      -0.00103600
O       10.00527000       3.20996000      12.25438000      -0.00119100       0.00039900      -0.00103400
O        7.56374000       3.38566000       3.39030000       0.00167300      -0.00066000      -0.00089400
O        0.96160000       9.98820000       9.99225000       0.00196700      -0.00036700      -0.00075100
O        4.95012000       1.20220000       1.20619000       0.00063900       0.00076200       0.00118600
O       11.55202000       7.80427000       7.80838000       0.00086500       0.00105200       0.00126100
O        8.28057000      11.99602000       1.20580000       0.00019700      -0.00064200       0.00097800
O        1.67887000       5.39453000       7.80712000       0.00010200      -0.00084200       0.00089900
O        8.28073000       1.20254000      11.99891000       0.00031200       0.00038500      -0.00091900
O        1.67838000       7.80445000       5.39730000       0.00024500       0.00052900      -0.00118100
O       11.55261000       5.39351000       5.39758000       0.00036400      -0.00057800      -0.00050700
O        4.95048000      11.99605000      11.99953000       0.00022200      -0.00031200      -0.00040500
O        1.21807000       1.20239000       4.93882000       0.00059500       0.00039800       0.00014400
O        7.82000000       7.80450000      11.54107000       0.00051700       0.00067500       0.00030700
O        1.21803000       4.93413000       1.20565000       0.00054500      -0.00006500       0.00073400
O        7.81994000      11.53623000       7.80788000       0.00062100       0.00011700       0.00086700
O        5.41014000       5.39394000      11.54032000      -0.00141700      -0.00067500       0.00055900
O       12.01181000      11.99541000       4.93898000      -0.00133000      -0.00104900       0.00011600
O        1.21826000       8.26333000      11.99965000       0.00110100       0.00013600      -0.00119900
O        7.82035000       1.66079000       5.39772000       0.00122800       0.00000600      -0.00161000
O       12.01217000       1.20211000       8.26642000      -0.00079000       0.00077300      -0.00006400
O        5.40983000       7.80405000       1.66473000      -0.00117500       0.00076600       0.00004300
O       12.01151000       8.26243000       1.20660000      -0.00050800      -0.00010700       0.00087900
O        5.40983000       1.66091000       7.80794000      -0.00094200      -0.00024400       0.00077700
O        1.21804000      11.99557000       8.26762000       0.00125600      -0.00087200       0.00037700
O        7.82016000       5.39305000       1.66565000       0.00118600      -0.00126700       0.00037100
O        5.40982000      11.53727000       5.39755000      -0.00137700       0.00043500      -0.00133700
O       12.01217000       4.93535000      11.99913000      -0.00086800       0.00034800      -0.00121900
O        3.77921000       1.50304000       5.71525000       0.00026500      -0.00040200       0.00099700
O       10.38115000       8.10513000      12.31745000       0.00094300       0.00021500       0.00235100
O        2.84915000       5.09341000      12.31656000      -0.00138300      -0.00087100       0.00180600
O        9.45083000      11.69490000       5.71528000      -0.00073700      -0.00037900       0.00024400
O        3.77904000      11.69514000       7.49078000       0.00083400      -0.00002800      -0.00028200
O       10.38115000       5.09260000       0.88883000       0.00160300      -0.00059600      -0.00158400
O        2.84901000       8.10470000       0.88864000      -0.00047200       0.00095500      -0.00076800
O        9.45137000       1.50281000       7.49027000       0.00006300       0.00044500       0.00013500
O        5.72689000       3.76334000       1.50620000       0.00148600       0.00091200       0.00073200
O       12.32879000      10.36538000       8.10839000       0.00282000       0.00184300       0.00134000
O        1.51778000       5.71183000       3.76592000       0.00065400       0.00125600       0.00085300
O        8.11967000      12.31393000      10.36814000       0.00074400       0.00201500       0.00111300
O        0.90029000       2.83425000       8.10834000      -0.00198500      -0.00091800       0.00016400
O        7.50195000       9.43576000       1.50700000      -0.00081000      -0.00040800      -0.00031200
O        5.10752000      12.31269000       2.83678000       0.00054600       0.00069300      -0.00066400
O       11.70988000       5.71079000       9.43835000       0.00116800      -0.00059000      -0.00020400
O       12.32928000       2.83251000       5.09792000       0.00116600      -0.00072800      -0.00030000
O        5.72719000       9.43505000      11.69988000      -0.00019000      -0.00003500       0.00031300
O       11.71131000       7.48619000       3.76728000       0.00050800       0.00052800      -0.00020400
O        5.10961000       0.88472000      10.36863000      -0.00017800      -0.00088100       0.00046700
O        7.50282000       3.76276000      11.69755000       0.00138700      -0.00020300       0.00062400
O        0.90048000      10.36468000       5.09600000       0.00023500       0.00042900       0.00012800
O        8.12149000       0.88417000       2.83685000       0.00017600      -0.00172100      -0.00079700
O        1.51937000       7.48670000       9.43879000      -0.00023400      -0.00076500      -0.00032800
O        5.10910000       2.83318000      12.31659000       0.00036800      -0.00040600       0.00146200
O       11.71074000       9.43465000       5.71525000       0.00109300       0.00033600      -0.00013800
O        1.51914000       3.76305000       5.71484000       0.00041200       0.00045200       0.00105000
O        8.12107000      10.36517000      12.31704000       0.00085200       0.00101100       0.00221200
O        8.12001000       2.83278000       0.88772000       0.00003900      -0.00172100      -0.00198500
O        1.51789000       9.43529000       7.48967000      -0.00021500      -0.00122600      -0.00096200
O       11.71026000       3.76317000       7.49073000       0.00058500       0.00033200       0.00053100
O        5.10790000      10.36512000       0.88913000       0.00005900       0.00087500      -0.00050800
O        2.84866000      12.31378000       5.09774000      -0.00035900      -0.00007100       0.00040900
O        9.45103000       5.71187000      11.69934000       0.00020900      -0.00145600       0.00093200
O       12.32878000       5.09317000       2.83599000       0.00190400      -0.00077300      -0.00086700
O        5.72666000      11.69571000       9.43795000       0.00065900      -0.00027600      -0.00023900
O        3.77926000       7.48687000      11.69893000      -0.00041000      -0.00042500       0.00033000
O       10.38137000       0.88432000       5.09704000       0.00020700      -0.00160800      -0.00036200
O        5.72760000       1.50117000       3.76717000       0.00097100       0.00072900       0.00104900
O       12.32950000       8.10328000      10.36937000       0.00222800       0.00120800       0.00167700
O        3.77884000       5.71101000       1.50640000       0.00075300       0.00179200      -0.00058400
O       10.38075000      12.31311000       8.10867000       0.00120100       0.00284000      -0.00026700
O        0.90089000       8.10614000       2.83717000      -0.00087500      -0.00053500      -0.00047900
O        7.50320000       1.50422000       9.43878000       0.00018100      -0.00089900       0.00003500
O        2.84868000       0.88431000       8.10833000      -0.00069600      -0.00166200       0.00067700
O        9.45036000       7.48580000       1.50699000      -0.00016300      -0.00045800       0.00016600
O        7.50197000      11.69475000       3.76590000      -0.00023100      -0.00021500      -0.00022400
O        0.90030000       5.09328000      10.36723000      -0.00140800      -0.00067900       0.00048600
