144
Lattice="13.281492733 0.002287725 0.000825187 0.002288889 13.285205636 0.003091733 0.000822774 0.003091808 13.284411946" Properties=species:S:1:pos:R:3:forces:R:3 stress="-0.008741127425144364 -5.798361977945547e-06 3.102030035563979e-06 -5.798361977945547e-06 -0.008737238964958939 2.8648526887804157e-06 3.102030035563979e-06 2.8648526887804157e-06 -0.008738119017745688" free_energy=-964.74007635 energy=-964.74007635 pbc="T T T"
Si       2.78964000       0.59285000       4.79052000      -0.00144100       0.00049100       0.00055700
Si       9.43195000       7.23817000      11.43469000      -0.00057800      -0.00021200       0.00011500
Si       3.89771000       5.81652000      11.43244000       0.00113300      -0.00143700      -0.00033500
Si      10.53929000      12.45872000       4.79216000       0.00021100      -0.00117200      -0.00024200
Si       2.79239000      12.45573000       8.49866000       0.00043200       0.00025500       0.00018900
Si       9.43160000       5.81272000       1.85546000       0.00025200      -0.00084200       0.00048700
Si       3.89665000       7.23407000       1.85516000       0.00011100       0.00013000      -0.00007200
Si      10.53671000       0.59414000       8.49627000      -0.00101500      -0.00042000      -0.00084600
Si       4.81072000       2.65005000       0.71139000       0.00145400       0.00060200      -0.00024700
Si      11.45311000       9.29529000       7.35553000      -0.00008000       0.00139900      -0.00130100
Si       0.73543000       4.67260000       2.77129000      -0.00005500      -0.00047000       0.00243100
Si       7.37773000      11.31793000       9.41537000       0.00171500       0.00089100       0.00035000
Si       1.87424000       3.75648000       7.35498000       0.00012300      -0.00102400      -0.00093300
Si       8.51576000      10.39862000       0.71465000       0.00026800       0.00085600       0.00055900
Si       5.95371000      11.31343000       3.87746000       0.00033800       0.00103800      -0.00003400
Si      12.59376000       4.67362000      10.51870000      -0.00082900       0.00056300      -0.00019800
Si      11.45004000       3.75829000       5.93418000      -0.00062400      -0.00039300      -0.00218200
Si       4.81083000      10.40134000      12.57735000       0.00032300       0.00027100      -0.00145300
Si      12.59284000       8.37881000       2.77180000      -0.00064700       0.00017500       0.00132900
Si       5.95134000       1.73671000       9.41200000       0.00079200      -0.00071000       0.00039100
Si       8.51688000       2.65308000      12.57453000      -0.00127200      -0.00011600      -0.00059000
Si       1.87692000       9.29295000       5.93342000      -0.00152400       0.00105700      -0.00093300
Si       7.37281000       1.73486000       3.87497000       0.00099500       0.00016400       0.00100000
Si       0.73370000       8.37797000      10.51833000      -0.00126500       0.00005900      -0.00029600
Si       2.79192000       4.67160000       0.71285000      -0.00105100      -0.00014600       0.00078800
Si       9.43433000      11.31686000       7.35701000      -0.00036900       0.00066200      -0.00027400
Si       3.89555000       1.73496000       7.35371000       0.00082500      -0.00052100       0.00045500
Si      10.53704000       8.37709000       0.71353000       0.00057000       0.00031900       0.00135600
Si       2.79099000       8.37899000      12.57557000       0.00071100      -0.00054800      -0.00030000
Si       9.43019000       1.73593000       5.93223000       0.00054800      -0.00095300      -0.00110200
Si       3.89797000      11.31415000       5.93556000       0.00017600       0.00114000      -0.00070600
Si      10.53793000       4.67429000      12.57672000       0.00009200      -0.00021900      -0.00062100
Si       0.73233000       2.65059000       4.79090000      -0.00079000      -0.00076000      -0.00002300
Si       7.37465000       9.29591000      11.43499000       0.00011500       0.00007000      -0.00043200
Si       4.80988000       0.59261000       2.76850000       0.00001900       0.00115000       0.00157600
Si      11.45227000       7.23798000       9.41273000      -0.00055000       0.00046600      -0.00023400
Si       5.95368000       3.75888000      11.43121000       0.00023300      -0.00066400      -0.00069600
Si      12.59527000      10.40104000       4.79091000      -0.00202800       0.00142500      -0.00073800
Si       1.87654000       7.23525000       3.87714000      -0.00074200      -0.00060800      -0.00116800
Si       8.51649000       0.59542000      10.51819000      -0.00004200      -0.00016600      -0.00088800
Si       7.37374000       3.75592000       1.85417000       0.00109100      -0.00065200       0.00084500
Si       0.73457000      10.39895000       8.49746000      -0.00024300       0.00092400      -0.00080100
Si       8.51688000      12.45552000       2.77209000      -0.00020900       0.00035000       0.00095600
Si       1.87537000       5.81342000       9.41237000      -0.00090200      -0.00085200      -0.00001100
Si      12.59179000       2.65328000       8.49797000      -0.00038200       0.00010700      -0.00056100
Si       5.95174000       9.29316000       1.85668000       0.00105100       0.00092500      -0.00003900
Si      11.45130000       5.81555000       3.87745000       0.00087300      -0.00045600       0.00006200
Si       4.81216000      12.45854000      10.52055000       0.00146500       0.00038100      -0.00100900
O        3.28145000       0.85799000       3.26173000       0.00075000       0.00037400      -0.00059400
O        9.92386000       7.50337000       9.90593000      -0.00025700       0.00025500      -0.00000800
O        3.40414000       5.54880000       9.90458000      -0.00107800       0.00025600      -0.00052700
O       10.04566000      12.19100000       3.26432000      -0.00140600      -0.00001900      -0.00092200
O        9.92359000       5.54658000       3.38403000      -0.00016300      -0.00040100      -0.00069700
O        3.28440000      12.18962000      10.02720000       0.00023200      -0.00070100       0.00001300
O        3.40443000       7.50211000       3.38331000       0.00034100       0.00050100      -0.00054300
O       10.04441000       0.86219000      10.02438000       0.00001800       0.00049200      -0.00004100
O        3.28241000       3.14241000       0.97813000       0.00029700       0.00047100      -0.00000600
O        9.92476000       9.78766000       7.62224000       0.00156700      -0.00074700       0.00005000
O        1.00022000       3.14358000       3.26295000       0.00009300       0.00040200      -0.00025100
O        7.64252000       9.78895000       9.90703000       0.00003900      -0.00099000       0.00117900
O        3.40267000       3.26323000       7.62027000      -0.00080400       0.00018500       0.00042300
O       10.04418000       9.90540000       0.98003000      -0.00047500      -0.00064100       0.00034000
O        5.68501000       9.78535000       3.38513000      -0.00007400      -0.00033200      -0.00063800
O       12.32508000       3.14550000      10.02640000       0.00008300       0.00081100      -0.00003900
O        9.92183000       3.26496000       5.66758000       0.00092300       0.00032600      -0.00044200
O        3.28264000       9.90802000      12.31087000      -0.00008900      -0.00061200      -0.00065200
O        5.68583000       3.26561000       9.90326000       0.00070900       0.00028000       0.00042300
O       12.32731000       9.90775000       3.26299000       0.00094800      -0.00066200      -0.00026500
O        3.40537000       9.78593000       5.66828000      -0.00029400      -0.00027700      -0.00017900
O       10.04532000       3.14606000      12.30938000       0.00035500       0.00064800      -0.00016900
O        7.64073000       3.26301000       3.38232000       0.00043100       0.00039800      -0.00040400
O        1.00161000       9.90610000      10.02557000       0.00053600      -0.00059000       0.00120800
O        4.98940000       1.12295000       1.24153000       0.00068600       0.00063900      -0.00001900
O       11.63189000       7.76823000       7.88572000       0.00081200      -0.00030800       0.00086300
O        8.33713000      11.92572000       1.24505000      -0.00104200      -0.00136000      -0.00114100
O        1.69560000       5.28356000       7.88532000      -0.00093900       0.00020300       0.00040400
O        8.33747000       1.12573000      12.04514000      -0.00026700       0.00066800       0.00092400
O        1.69752000       7.76558000       5.40410000      -0.00020700       0.00051100       0.00068700
O       11.63000000       5.28533000       5.40439000       0.00007100      -0.00062100       0.00018100
O        4.99083000      11.92836000      12.04749000       0.00019600      -0.00142300       0.00066900
O        1.26279000       1.12363000       4.97122000       0.00023400      -0.00114000      -0.00003900
O        7.90511000       7.76896000      11.61531000      -0.00023800      -0.00096200       0.00001800
O        1.26553000       4.85267000       1.24439000       0.00215200       0.00020800      -0.00144300
O        7.90795000      11.49797000       7.88846000       0.00051000       0.00013700       0.00044500
O        5.42493000       5.28638000      11.61073000      -0.00178300       0.00086000      -0.00023700
O       12.06650000      11.92859000       4.97042000      -0.00048400      -0.00074700      -0.00028800
O        1.26406000       8.19813000      12.04526000      -0.00052000      -0.00056600      -0.00013400
O        7.90326000       1.55501000       5.40191000      -0.00081800      -0.00041200      -0.00069500
O       12.06300000       1.12612000       8.31668000       0.00082500       0.00069600      -0.00030200
O        5.42294000       7.76604000       1.67542000      -0.00044700      -0.00052400      -0.00024600
O       12.06388000       8.19830000       1.24453000      -0.00159000      -0.00058400      -0.00111700
O        5.42239000       1.55624000       7.88471000      -0.00148100      -0.00071500      -0.00078900
O        1.26547000      11.92566000       8.31779000       0.00024800      -0.00029200       0.00046700
O        7.90468000       5.28261000       1.67458000       0.00051700       0.00076000       0.00026300
O        5.42455000      11.49412000       5.40457000      -0.00091500       0.00026800       0.00012600
O       12.06452000       4.85429000      12.04577000      -0.00048800       0.00035100       0.00037400
O        3.82004000       1.39369000       5.77323000      -0.00029500      -0.00010100       0.00050800
O       10.46234000       8.03893000      12.41748000      -0.00046000      -0.00036500      -0.00035100
O        2.86871000       5.01625000      12.41695000      -0.00036700      -0.00036600       0.00024600
O        9.51031000      11.65844000       5.77669000      -0.00046100      -0.00058900       0.00043300
O        3.82264000      11.65436000       7.51621000       0.00067100       0.00050600      -0.00060100
O       10.46181000       5.01135000       0.87297000       0.00021600       0.00028900      -0.00024100
O        2.86567000       8.03251000       0.87117000       0.00006300       0.00072200      -0.00128400
O        9.50571000       1.39252000       7.51222000       0.00062300       0.00032100      -0.00010600
O        5.79327000       3.67968000       1.51340000       0.00002600       0.00055800      -0.00009200
O       12.43554000      10.32499000       8.15756000       0.00210800       0.00084700       0.00066300
O        1.53666000       5.65442000       3.80189000       0.00223600       0.00043200       0.00118300
O        8.17885000      12.29980000      10.44602000       0.00196000      -0.00025100       0.00115900
O        0.89076000       2.72744000       8.15640000      -0.00104500      -0.00085200       0.00061700
O        7.53224000       9.36956000       1.51599000      -0.00212100      -0.00116900       0.00110900
O        5.15425000      12.29752000       2.84736000       0.00011800       0.00095300      -0.00005500
O       11.79430000       5.65767000       9.48857000       0.00008500       0.00125500       0.00024400
O       12.43322000       2.72904000       5.13243000      -0.00018100      -0.00043700      -0.00074400
O        5.79405000       9.37209000      11.77564000      -0.00066500      -0.00058100      -0.00058600
O       11.79039000       7.39654000       3.80158000      -0.00039800       0.00050400      -0.00011100
O        5.14891000       0.75437000      10.44169000      -0.00092800      -0.00082100       0.00056200
O        7.53423000       3.68190000      11.77153000       0.00060200       0.00019900       0.00034800
O        0.89431000      10.32175000       5.13027000       0.00279000      -0.00052500       0.00125000
O        8.17231000       0.75048000       2.84509000      -0.00140000      -0.00073000      -0.00058100
O        1.53316000       7.39355000       9.48846000      -0.00173300       0.00033700      -0.00032000
O        5.15295000       2.72996000      12.41546000      -0.00034700      -0.00031100       0.00100000
O       11.79457000       9.37217000       5.77521000      -0.00033000      -0.00060900       0.00153100
O        1.53184000       3.68067000       5.77486000       0.00032300       0.00015800       0.00175400
O        8.17422000      10.32596000      12.41897000      -0.00043100      -0.00050000       0.00004700
O        8.17327000       2.72570000       0.87020000       0.00063300       0.00023300      -0.00019200
O        1.53406000       9.36872000       7.51348000       0.00091500       0.00000000      -0.00054300
O       11.79029000       3.68267000       7.51480000       0.00040400      -0.00035600       0.00104200
O        5.15033000      10.32264000       0.87356000       0.00022000      -0.00021300       0.00002800
O        2.86770000      12.29775000       5.13571000       0.00005700      -0.00105000      -0.00075500
O        9.50769000       5.65785000      11.77680000      -0.00030200       0.00001900      -0.00107400
O       12.43638000       5.01640000       2.84806000       0.00201700       0.00074800       0.00025200
O        5.79721000      11.65952000       9.49103000       0.00092600       0.00103700       0.00054600
O        3.82127000       7.39700000      11.77340000      -0.00034500       0.00065000      -0.00032900
O       10.46051000       0.75400000       5.13003000      -0.00035400       0.00046600      -0.00034700
O        5.79216000       1.39460000       3.79852000      -0.00221800       0.00129400       0.00015800
O       12.43449000       8.03999000      10.44272000       0.00022800       0.00214800       0.00100200
O        3.82242000       5.65331000       1.51487000       0.00069700       0.00078800       0.00008300
O       10.46481000      12.29856000       8.15906000       0.00065200       0.00116800       0.00027400
O        0.89159000       8.03466000       2.84787000       0.00047100      -0.00124900      -0.00018700
O        7.53161000       1.39487000       9.48890000      -0.00067900      -0.00088500      -0.00042900
O        2.86607000       0.75091000       8.15401000      -0.00047600      -0.00108800       0.00117700
O        9.50758000       7.39310000       1.51392000      -0.00045400      -0.00047900       0.00067000
O        7.53452000      11.65302000       3.80164000      -0.00076600      -0.00033400       0.00039800
O        0.89304000       5.01088000      10.44195000       0.00071800       0.00062200       0.00023300
