144
Lattice="14.897135527 -0.000235001 -7.5925e-05 -0.000235657 14.894554313 -3.1638e-05 -7.6342e-05 -3.0696e-05 14.921620946" Properties=species:S:1:pos:R:3:forces:R:3 stress="-0.0006307544292435103 -1.7725885917508454e-06 4.2879167694817985e-06 -1.7725885917508454e-06 -0.0006218103466661196 -6.241509125883259e-09 4.2879167694817985e-06 -6.241509125883259e-09 -0.000618795697758318" free_energy=-965.42820402 energy=-965.42820402 pbc="T T T"
Si       3.81388000       1.49240000       5.90888000      -0.00045800      -0.00123400       0.00055400
Si      11.26229000       8.93956000      13.36962000      -0.00073400      -0.00172700       0.00044700
Si       3.80665000       5.83738000      13.37017000       0.00098300       0.00077200       0.00068400
Si      11.25515000      13.28456000       5.90930000       0.00080600       0.00061900       0.00078900
Si       3.81274000      13.28601000       9.00647000       0.00188000       0.00116000      -0.00033800
Si      11.26147000       5.83864000       1.54563000       0.00160600       0.00072800      -0.00076400
Si       3.80677000       8.93908000       1.54515000       0.00081800      -0.00055700      -0.00259300
Si      11.25542000       1.49167000       9.00593000       0.00066000      -0.00079500      -0.00232600
Si       5.98381000       3.66009000       1.54456000      -0.00118900       0.00008800      -0.00160600
Si      13.43225000      11.10724000       9.00531000      -0.00167900       0.00020300      -0.00161500
Si       1.63579000       5.83815000       3.72633000      -0.00089600      -0.00103100      -0.00107600
Si       9.08421000      13.28530000      11.18709000      -0.00076400      -0.00102200      -0.00111100
Si       1.63645000       3.66866000       9.00606000       0.00012700      -0.00000300       0.00034100
Si       9.08494000      11.11583000       1.54520000      -0.00013900       0.00016200       0.00027500
Si       5.98447000      13.28566000       3.72842000       0.00030000       0.00039000       0.00004500
Si      13.43312000       5.83826000      11.18920000       0.00006100       0.00033800       0.00067100
Si      13.43310000       3.66841000       5.90949000      -0.00096400      -0.00040900      -0.00015000
Si       5.98438000      11.11580000      13.37033000      -0.00100500      -0.00055200       0.00002100
Si      13.43333000       8.93923000       3.72641000      -0.00160200      -0.00031500       0.00132400
Si       5.98485000       1.49206000      11.18728000      -0.00175400      -0.00023100       0.00107600
Si       9.08581000       3.66129000      13.37004000      -0.00057600       0.00093100       0.00018600
Si       1.63717000      11.10870000       5.90925000      -0.00086000       0.00057900       0.00022600
Si       9.08564000       1.49251000       3.72749000       0.00096900      -0.00036100       0.00165100
Si       1.63692000       8.93990000      11.18833000       0.00118900      -0.00010900       0.00205400
Si       3.80631000       5.83718000       1.54486000      -0.00014800       0.00016500      -0.00312900
Si      11.25472000      13.28433000       9.00562000       0.00014600      -0.00005800      -0.00288200
Si       3.81365000       1.49243000       9.00612000       0.00039000      -0.00160300      -0.00045900
Si      11.26215000       8.93960000       1.54523000       0.00009900      -0.00169700      -0.00039300
Si       3.80716000       8.93910000      13.37021000       0.00026700      -0.00169600       0.00091800
Si      11.25586000       1.49172000       5.90938000       0.00019500      -0.00150700       0.00082000
Si       3.81334000      13.28597000       5.90946000       0.00034100       0.00180900       0.00148100
Si      11.26199000       5.83856000      13.37024000       0.00007700       0.00161200       0.00154200
Si       1.63666000       3.66869000       5.90920000      -0.00098900      -0.00049800       0.00026200
Si       9.08508000      11.11584000      13.36996000      -0.00096600      -0.00041400       0.00038700
Si       5.98485000       1.49224000       3.72761000      -0.00001400      -0.00005300      -0.00039700
Si      13.43328000       8.93939000      11.18837000      -0.00012800       0.00022200      -0.00063600
Si       5.98400000       3.66042000      13.36996000      -0.00149400       0.00083900       0.00049600
Si      13.43249000      11.10759000       5.90909000      -0.00162100       0.00064100       0.00083100
Si       1.63689000       8.93963000       3.72712000      -0.00057500       0.00067100      -0.00108900
Si       9.08555000       1.49223000      11.18791000      -0.00056800       0.00079200      -0.00084200
Si       9.08564000       3.66097000       1.54503000       0.00067900       0.00004300      -0.00030900
Si       1.63694000      11.10834000       9.00585000       0.00007700       0.00027800      -0.00004000
Si       9.08427000      13.28548000       3.72794000       0.00096800       0.00009300       0.00247900
Si       1.63577000       5.83831000      11.18880000       0.00122200       0.00016700       0.00280600
Si      13.43310000       3.66823000       9.00636000       0.00004700       0.00032600      -0.00128200
Si       5.98445000      11.11563000       1.54557000       0.00012600       0.00034700      -0.00121100
Si      13.43281000       5.83833000       3.72686000      -0.00098500      -0.00009800       0.00014700
Si       5.98410000      13.28571000      11.18769000      -0.00089100       0.00001500       0.00033000
O        5.09073000       1.90967000       5.00868000       0.00056400      -0.00237400      -0.00048400
O       12.53915000       9.35682000      12.46942000       0.00068400      -0.00233600      -0.00052600
O        2.53273000       5.41790000      12.46703000      -0.00129100       0.00049600      -0.00287500
O        9.98122000      12.86507000       5.00616000      -0.00106200       0.00047000      -0.00259200
O       12.53727000       5.42027000       2.44694000      -0.00068900       0.00108300       0.00099100
O        5.08855000      12.86767000       9.90779000      -0.00094600       0.00107100       0.00069600
O        2.53176000       9.35811000       2.44691000      -0.00116100       0.00011200       0.00159600
O        9.98041000       1.91070000       9.90770000      -0.00104500       0.00011300       0.00147200
O        5.09153000       4.94518000       1.95379000       0.00068000      -0.00016300      -0.00176400
O       12.53996000      12.39233000       9.41454000       0.00055300      -0.00007800      -0.00187000
O        2.05274000       4.94547000       5.00844000      -0.00117700       0.00090900      -0.00017800
O        9.50116000      12.39261000      12.46920000      -0.00116900       0.00090700      -0.00017800
O        2.53132000       2.38667000       9.41882000      -0.00024600       0.00190300      -0.00030200
O        9.97981000       9.83384000       1.95794000       0.00008700       0.00159800      -0.00030400
O        5.56686000      12.39120000       2.44755000       0.00100500       0.00025500       0.00073100
O       13.01552000       4.94382000       9.90832000       0.00093900      -0.00000300       0.00053700
O       12.54047000       2.38401000       5.49931000       0.00023700       0.00112800       0.00115700
O        5.09177000       9.83139000      12.96015000       0.00039700       0.00125100       0.00115900
O        5.56419000       2.38635000      12.46719000       0.00016200      -0.00033300      -0.00191200
O       13.01268000       9.83352000       5.00632000       0.00014800      -0.00037600      -0.00201100
O        2.52906000      12.39352000       5.49856000      -0.00015100      -0.00246700       0.00107600
O        9.97770000       4.94611000      12.95935000      -0.00031200      -0.00260300       0.00113400
O        9.50484000       2.38530000       2.44605000       0.00033000       0.00045400      -0.00039900
O        2.05613000       9.83267000       9.90687000       0.00030800       0.00047600      -0.00045200
O        5.56409000       2.38570000       2.44710000       0.00040700       0.00081900       0.00182700
O       13.01251000       9.83285000       9.90785000       0.00054100       0.00058400       0.00206000
O        9.50040000      12.39308000       2.44547000      -0.00153600      -0.00009700      -0.00066100
O        2.05192000       4.94591000       9.90634000      -0.00156900      -0.00013300      -0.00079500
O        9.50478000       2.38562000      12.46893000       0.00004600      -0.00125500      -0.00110400
O        2.05613000       9.83302000       5.00813000       0.00007000      -0.00094100      -0.00083700
O       13.01487000       4.94400000       5.00772000       0.00157900      -0.00028400      -0.00029700
O        5.56615000      12.39138000      12.46856000       0.00157700      -0.00020900      -0.00037100
O        2.53098000       2.38619000       5.49693000       0.00046400       0.00159800      -0.00025200
O        9.97938000       9.83333000      12.95768000       0.00060200       0.00152400      -0.00023600
O        2.53170000       5.41799000       2.44727000      -0.00010700      -0.00004800       0.00239600
O        9.98012000      12.86514000       9.90802000      -0.00022600      -0.00003800       0.00251000
O        5.09196000       4.94565000      12.96114000       0.00143600      -0.00110800       0.00183000
O       12.54046000      12.39283000       5.50027000       0.00132200      -0.00094100       0.00180400
O        2.53247000       9.35836000      12.46808000      -0.00189600      -0.00047400      -0.00216300
O        9.98114000       1.91095000       5.00727000      -0.00125300      -0.00041000      -0.00181400
O       12.53978000       2.38427000       9.41646000      -0.00003900       0.00045200      -0.00077900
O        5.09113000       9.83167000       1.95567000      -0.00021700       0.00026100      -0.00076700
O       12.53922000       9.35616000       2.44534000       0.00012000      -0.00187500      -0.00057900
O        5.09074000       1.90898000       9.90621000       0.00017700      -0.00191600      -0.00049800
O        2.52872000      12.39312000       9.41724000      -0.00132500      -0.00276500      -0.00144700
O        9.97742000       4.94576000       1.95640000      -0.00102700      -0.00254200      -0.00145800
O        5.08917000      12.86722000       5.00837000      -0.00021300       0.00181300      -0.00085000
O       12.53780000       5.41980000      12.46915000       0.00038500       0.00186700      -0.00143100
O        4.22273000       1.74562000       7.45752000      -0.00032700      -0.00127100      -0.00012200
O       11.67116000       9.19277000      14.91826000      -0.00039800      -0.00129800       0.00014700
O        3.39415000       5.58530000      14.91822000      -0.00130700       0.00004200       0.00195700
O       10.84264000      13.03247000       7.45736000      -0.00127400       0.00007700       0.00151700
O        4.22319000      13.03355000       7.45804000       0.00065900       0.00169000      -0.00090000
O       11.67184000       5.58614000      14.91881000       0.00059000       0.00175800      -0.00044200
O        3.39632000       9.19239000      14.91838000      -0.00153100       0.00037900       0.00166600
O       10.84504000       1.74502000       7.45755000      -0.00154500       0.00039800       0.00151900
O        7.53449000       4.06197000       1.79427000       0.00120500       0.00008300      -0.00015800
O        0.08578000      11.50933000       9.25509000       0.00223300       0.00019800      -0.00014000
O        1.88810000       7.38873000       4.12757000      -0.00141900       0.00117100      -0.00035400
O        9.33650000      14.83588000      11.58833000      -0.00140900       0.00112700      -0.00037600
O        0.08623000       3.26377000       9.25510000       0.00030700      -0.00120400       0.00026100
O        7.53472000      10.71095000       1.79424000       0.00040400      -0.00119000       0.00025800
O        5.73463000      14.83610000       3.32567000       0.00172700       0.00003700      -0.00167900
O       13.18329000       7.38870000      10.78647000       0.00178900       0.00010800      -0.00169500
O        0.08625000       3.26450000       5.66041000       0.00150800      -0.00126600       0.00019200
O        7.53466000      10.71165000      13.12117000       0.00147700      -0.00125100       0.00015900
O       13.18321000       7.38885000       4.12923000       0.00147200       0.00084500       0.00102000
O        5.73453000      14.83623000      11.59008000       0.00141300       0.00062800       0.00099000
O        7.53471000       4.06237000      13.12077000       0.00255000       0.00008400       0.00029500
O        0.08606000      11.50979000       5.65999000       0.00285000       0.00009600       0.00028100
O        9.33609000      14.83614000       3.32695000      -0.00070700       0.00028100      -0.00039600
O        1.88760000       7.38898000      10.78784000      -0.00071600       0.00011000      -0.00037300
O        5.73235000       3.24764000      14.91798000       0.00125400      -0.00153900       0.00152200
O       13.18085000      10.69481000       7.45712000       0.00125500      -0.00154500       0.00103400
O        1.89002000       4.07829000       7.45766000      -0.00127800       0.00045700      -0.00040500
O        9.33843000      11.52544000      14.91841000      -0.00125700       0.00043500      -0.00048900
O        9.33914000       3.25101000      14.91830000      -0.00070300      -0.00229700       0.00060600
O        1.89051000      10.69842000       7.45750000      -0.00068500      -0.00228200       0.00036400
O       13.18172000       4.07984000       7.45792000       0.00105600       0.00104700       0.00154100
O        5.73300000      11.52722000      14.91876000       0.00135500       0.00124800       0.00148900
O        3.41030000      14.83639000       5.65976000      -0.00257600       0.00071400       0.00020300
O       10.85895000       7.38897000      13.12051000      -0.00252800       0.00132900       0.00036100
O        0.08564000       5.58622000       3.32318000       0.00202600      -0.00044600      -0.00151000
O        7.53406000      13.03334000      10.78393000       0.00191700      -0.00041200      -0.00150600
O        4.20832000       7.38813000      13.12094000       0.00042500       0.00098700       0.00140000
O       11.65680000      14.83531000       5.66008000       0.00047600       0.00091800       0.00138600
O        7.53527000       1.74665000       4.12868000       0.00029000       0.00029200       0.00051700
O        0.08656000       9.19404000      11.58953000       0.00017200       0.00031100       0.00048100
O        4.20802000       7.38801000       1.79432000       0.00001300       0.00068500      -0.00079300
O       11.65644000      14.83516000       9.25507000       0.00002200       0.00095500      -0.00082300
O        0.08658000       9.19321000       3.32534000       0.00210200       0.00111000      -0.00101600
O        7.53523000       1.74582000      10.78613000       0.00211400       0.00109300      -0.00101300
O        3.40936000      14.83653000       9.25530000      -0.00172000       0.00068200      -0.00009100
O       10.85809000       7.38915000       1.79445000      -0.00169400       0.00116100      -0.00006300
O        7.53446000      13.03339000       4.13212000      -0.00035400       0.00002700       0.00190800
O        0.08597000       5.58621000      11.59299000      -0.00042900       0.00005000       0.00188200
