144
Lattice="13.421467884 -0.001100386 -0.002095275 -0.001149991 13.416980647 -0.005347655 -0.002093223 -0.005370198 13.411924885" Properties=species:S:1:pos:R:3:forces:R:3 stress="-0.006247731910481763 -5.86077706920438e-06 -6.491169490918587e-07 -5.86077706920438e-06 -0.006254472740337718 -5.30528275700077e-07 -6.491169490918587e-07 -5.30528275700077e-07 -0.006247594597280995" free_energy=-965.3778194 energy=-965.3778194 pbc="T T T"
Si       3.78364000       1.61924000       5.88344000       0.00143900       0.00139500       0.00034500
Si      10.49277000       8.32440000      12.58577000       0.00208900       0.00281600      -0.00174100
Si       2.72531000       4.62966000      12.58462000       0.00286400      -0.00138800       0.00105900
Si       9.43654000      11.34033000       5.87498000       0.00154600       0.00030800       0.00286700
Si       3.78379000      11.33933000       7.37987000       0.00239800       0.00039100       0.00146800
Si      10.49611000       4.63291000       0.67562000       0.00122400      -0.00054800      -0.00044300
Si       2.72540000       8.32744000       0.67920000      -0.00040400      -0.00076700       0.00061400
Si       9.43570000       1.61575000       7.38688000      -0.00106100      -0.00271700       0.00154700
Si       5.85806000       3.65905000       1.77667000      -0.00021700      -0.00050500      -0.00023300
Si      12.56723000      10.36435000       8.47889000      -0.00116000       0.00144000       0.00208800
Si       1.74488000       5.72699000       3.81050000       0.00104500       0.00066900      -0.00115100
Si       8.45398000      12.43225000      10.51283000       0.00131000      -0.00176900       0.00001700
Si       0.64850000       2.59231000       8.47988000       0.00057900      -0.00159200      -0.00092200
Si       7.35970000       9.30284000       1.77035000      -0.00029000       0.00120100      -0.00217900
Si       4.76248000      12.43807000       2.74569000      -0.00086600       0.00071700      -0.00183200
Si      11.47271000       5.72637000       9.45326000      -0.00102400       0.00193200      -0.00086100
Si      12.56827000       2.59411000       4.78239000       0.00013100      -0.00061500      -0.00168200
Si       5.85598000       9.30039000      11.48675000       0.00001800      -0.00018900      -0.00165200
Si      11.47412000       7.23224000       3.80606000       0.00115900      -0.00090500      -0.00113700
Si       4.76287000       0.52160000      10.51570000       0.00041200      -0.00044700       0.00093700
Si       7.36096000       3.65359000      11.49212000      -0.00340900      -0.00106100      -0.00100600
Si       0.65070000      10.36529000       4.78452000      -0.00011000      -0.00064300      -0.00180900
Si       8.45550000       0.52543000       2.75203000       0.00055200       0.00154200      -0.00004200
Si       1.74315000       7.23177000       9.45631000       0.00148700       0.00261400       0.00171800
Si       3.78568000       5.73028000       1.77583000       0.00018800      -0.00105500      -0.00054400
Si      10.49479000      12.43563000       8.47817000       0.00183600      -0.00104700       0.00072100
Si       2.72221000       0.52214000       8.48163000      -0.00151100       0.00056200      -0.00029100
Si       9.43339000       7.23258000       1.77202000      -0.00026400       0.00170000      -0.00206100
Si       3.78430000       7.22755000      11.48958000       0.00102700      -0.00089000       0.00069300
Si      10.49666000       0.52118000       4.78527000       0.00050200      -0.00039400      -0.00023700
Si       2.72457000      12.43486000       4.78185000       0.00078800       0.00043500      -0.00178200
Si       9.43482000       5.72310000      11.48945000      -0.00033700       0.00265200      -0.00067700
Si       1.74538000       3.65427000       5.88053000      -0.00080100      -0.00125800       0.00167600
Si       8.45442000      10.35943000      12.58291000       0.00154900      -0.00037500      -0.00108400
Si       5.85689000       1.61988000       3.81342000       0.00023700       0.00038800      -0.00079600
Si      12.56603000       8.32511000      10.51564000      -0.00171300       0.00239200       0.00162500
Si       4.76250000       2.59385000      12.58666000      -0.00221600       0.00130000       0.00082500
Si      11.47372000       9.30453000       5.87694000      -0.00237600       0.00234700       0.00335900
Si       0.65035000       8.32690000       2.74849000       0.00109600      -0.00121200      -0.00252200
Si       7.36061000       1.61512000       9.45612000       0.00020100      -0.00074600      -0.00073900
Si       8.45579000       2.59926000       0.68131000      -0.00098900      -0.00139700       0.00106300
Si       1.74343000       9.30565000       7.38560000       0.00016400       0.00021900       0.00308300
Si       7.36172000      11.34303000       3.80545000      -0.00048900       0.00089100       0.00063900
Si       0.65049000       4.63243000      10.51505000       0.00157800      -0.00000800       0.00222200
Si      11.47263000       3.65401000       7.38172000       0.00057200      -0.00065100      -0.00164800
Si       4.76245000      10.36564000       0.67420000      -0.00036400       0.00054100      -0.00171000
Si      12.56919000       4.63187000       2.74586000       0.00104200      -0.00215400      -0.00055100
Si       5.85682000      11.33822000       9.45021000       0.00073200      -0.00231900      -0.00041500
O        5.30518000       1.45775000       5.33401000      -0.00033000      -0.00064200       0.00238400
O       12.01431000       8.16304000      12.03628000      -0.00021100      -0.00082900       0.00146800
O        1.20443000       4.79365000      12.03491000      -0.00359700       0.00090700      -0.00095100
O        7.91562000      11.50432000       5.32527000      -0.00227800       0.00080400       0.00072600
O       12.01726000       4.79514000       1.22547000       0.00150700      -0.00010700      -0.00144900
O        5.30499000      11.50145000       7.92978000       0.00061900       0.00013800      -0.00193100
O        1.20416000       8.16467000       1.22873000      -0.00167400      -0.00011400       0.00079900
O        7.91444000       1.45290000       7.93640000      -0.00080800       0.00011300      -0.00009100
O        5.30705000       5.18011000       1.61598000       0.00071300       0.00108000       0.00039500
O       12.01618000      11.88544000       8.31831000       0.00054200       0.00034600       0.00033000
O        1.58279000       5.17555000       5.33110000      -0.00060800       0.00113500       0.00178800
O        8.29188000      11.88072000      12.03342000      -0.00069000       0.00077400       0.00146800
O        1.20063000       1.07156000       8.32107000      -0.00019500      -0.00018300       0.00013200
O        7.91185000       7.78216000       1.61148000       0.00051700      -0.00172600      -0.00008400
O        4.92627000      11.88634000       1.22520000      -0.00064600       0.00291200       0.00041900
O       11.63646000       5.17469000       7.93279000      -0.00067900       0.00306200      -0.00054900
O       12.01716000       1.07349000       4.94555000       0.00056100      -0.00115900       0.00020800
O        5.30481000       7.77979000      11.64991000       0.00077500      -0.00115200       0.00032500
O        4.92717000       1.07329000      12.03616000       0.00033500      -0.00155200       0.00079300
O       11.63838000       7.78399000       5.32648000       0.00038100      -0.00216200       0.00091500
O        1.20343000      11.88548000       4.94465000      -0.00096400       0.00107600       0.00040400
O        7.91363000       5.17377000      11.65222000      -0.00010700       0.00230500       0.00044100
O        8.29184000       1.07880000       1.23234000      -0.00023500      -0.00022800      -0.00040100
O        1.57949000       7.78524000       7.93669000      -0.00041600      -0.00096500      -0.00068500
O        5.58172000       3.13690000       3.29286000       0.00045700       0.00088800       0.00142600
O       12.29093000       9.84216000       9.99512000       0.00059700       0.00084400       0.00041300
O        7.63623000       9.82559000       3.28619000       0.00016800      -0.00177200       0.00111900
O        0.92498000       3.11498000       9.99577000      -0.00005900      -0.00116700       0.00129300
O        7.63917000       3.13168000       9.97615000       0.00001700       0.00007400      -0.00117600
O        0.92898000       9.84341000       3.26851000       0.00009200       0.00146900       0.00056500
O       12.29144000       3.11519000       3.26594000      -0.00032900       0.00015200      -0.00182300
O        5.57910000       9.82152000       9.97032000      -0.00011000       0.00051900      -0.00184800
O        3.26303000       3.13565000       5.60464000       0.00073600       0.00064600       0.00017200
O        9.97216000       9.84087000      12.30717000      -0.00001700       0.00021500       0.00006500
O        3.26258000       5.45255000       3.29145000       0.00076700      -0.00019300       0.00209900
O        9.97168000      12.15779000       9.99377000       0.00089000      -0.00006600       0.00171100
O        3.24502000       3.11226000      12.30994000      -0.00071900       0.00006600       0.00156200
O        9.95620000       9.82296000       5.60033000       0.00056800      -0.00148600       0.00135600
O        3.26094000       7.50767000       9.97453000      -0.00220400       0.00012800      -0.00248100
O        9.97324000       0.80137000       3.27022000      -0.00057200      -0.00005600      -0.00088000
O        9.95558000       3.13387000       7.65805000      -0.00070300       0.00230500       0.00039200
O        3.24536000       9.84556000       0.95047000      -0.00092200       0.00115500       0.00020500
O        9.95585000       7.50642000       3.28857000      -0.00151800       0.00011700       0.00115000
O        3.24464000       0.79595000       9.99822000      -0.00193400       0.00010000       0.00063100
O        3.26156000       9.82378000       7.65961000       0.00071400      -0.00129600      -0.00038500
O        9.97392000       3.11732000       0.95530000       0.00172200      -0.00032400      -0.00030700
O        3.24545000      12.16052000       3.26483000      -0.00110000      -0.00001200      -0.00004400
O        9.95571000       5.44876000       9.97248000      -0.00026100      -0.00021600      -0.00152800
O        3.74548000       1.29822000       7.47150000       0.00066900       0.00052600       0.00111200
O       10.45679000       8.00852000       0.76182000      -0.00082600      -0.00068200       0.00416100
O        2.76296000       4.96052000       0.76001000      -0.00015500       0.00146600       0.00166200
O        9.47212000      11.66597000       7.46232000      -0.00122200       0.00059000      -0.00076100
O        3.74976000      11.66038000       5.79165000       0.00000800      -0.00070600      -0.00241300
O       10.45992000       4.94866000      12.49931000       0.00082300      -0.00152700      -0.00097400
O        2.75882000       7.99452000      12.50438000      -0.00037400      -0.00025500       0.00045100
O        9.47120000       1.28805000       5.80019000      -0.00011800      -0.00034700      -0.00055700
O        7.44600000       3.62554000       1.45444000       0.00272600       0.00019600       0.00026200
O        0.73366000      10.33202000       8.15870000       0.00389700      -0.00042700      -0.00008000
O        1.41639000       7.31365000       3.77673000      -0.00068500       0.00110500      -0.00029800
O        8.12665000       0.60187000      10.48443000      -0.00166800       0.00384200      -0.00120000
O       12.48250000       2.62616000       8.15272000      -0.00051700       0.00007600      -0.00067300
O        5.77220000       9.33780000       1.44533000       0.00080400      -0.00038700      -0.00021900
O        5.08597000       0.60920000       2.78613000      -0.00083300      -0.00065500      -0.00056200
O       11.79504000       7.31452000       9.48841000      -0.00144700      -0.00193100      -0.00184700
O        0.73491000       2.62879000       5.10699000       0.00112700       0.00096200       0.00076900
O        7.44410000       9.33390000      11.80925000       0.00023600       0.00036100       0.00044900
O       11.79928000       5.64476000       3.77127000      -0.00006600       0.00025200       0.00036800
O        5.08677000      12.35110000      10.47556000       0.00048900      -0.00097200       0.00005500
O        5.77283000       3.62057000      11.81474000       0.00097400       0.00076600      -0.00149600
O       12.48408000      10.33122000       5.10499000      -0.00114500       0.00034200      -0.00088400
O        8.13177000      12.35420000       2.77832000       0.00043900      -0.00105500      -0.00041200
O        1.42060000       5.64357000       9.48793000      -0.00002200      -0.00165900      -0.00030900
O        5.08776000       2.63492000       0.76260000       0.00144900      -0.00018600       0.00091800
O       11.79692000       9.34028000       7.46485000       0.00030300      -0.00138300      -0.00215400
O        1.41928000       3.61738000       7.46759000       0.00054900       0.00058700       0.00039900
O        8.13038000      10.32798000       0.75796000      -0.00069000      -0.00049800       0.00357800
O        8.12917000       2.62754000      12.50565000      -0.00012800      -0.00077300       0.00035800
O        1.41892000       9.33920000       5.79808000      -0.00100200      -0.00034600      -0.00216400
O       11.79730000       3.61999000       5.79412000      -0.00204000       0.00131600       0.00007200
O        5.08508000      10.32629000      12.49854000      -0.00180400       0.00087800      -0.00018900
O        2.76016000       0.60535000       5.11236000      -0.00066100      -0.00097800      -0.00059500
O        9.46930000       7.31062000      11.81457000      -0.00102400      -0.00259100      -0.00096700
O        0.73611000       4.95396000       2.78289000      -0.00007200      -0.00154500      -0.00056100
O        7.44519000      11.65925000       9.48520000      -0.00016600      -0.00159200      -0.00052400
O        3.75121000       5.63908000      11.81023000      -0.00002800      -0.00120900       0.00006500
O       10.46244000      12.34967000       5.10050000       0.00013100      -0.00088200       0.00001100
O        7.44433000       1.29429000       3.78056000       0.00209300      -0.00104900      -0.00028700
O        0.73194000       8.00058000      10.48489000       0.00456700      -0.00192700      -0.00102800
O        3.74972000       7.31876000       1.45614000       0.00016000       0.00199600       0.00112000
O       10.46002000       0.60717000       8.16400000      -0.00044600       0.00330300       0.00053500
O       12.48330000       8.00473000       2.77853000      -0.00182100       0.00012300       0.00013700
O        5.77206000       1.29403000       9.48823000       0.00068900       0.00107600      -0.00101900
O        2.75773000      12.35246000       8.14856000       0.00064600      -0.00157100      -0.00075500
O        9.46994000       5.64590000       1.44434000       0.00063200      -0.00079400      -0.00053500
O        5.77411000      11.66790000       3.77230000      -0.00109100       0.00008700      -0.00001200
O       12.48440000       4.95624000      10.47987000      -0.00231100       0.00035100      -0.00036700
