144
Lattice="13.346237094 -0.004123908 0.005038897 -0.004124293 13.34259233 -0.002905201 0.005036776 -0.002912648 13.343086387" Properties=species:S:1:pos:R:3:forces:R:3 stress="-0.0075002155467727575 -6.3850638357785735e-06 -6.722105328576269e-06 -6.3850638357785735e-06 -0.00749458570554121 8.176376954907069e-07 -6.722105328576269e-06 8.176376954907069e-07 -0.0074998036071704495" free_energy=-965.0433037 energy=-965.0433037 pbc="T T T"
Si       2.83868000       0.84454000       4.85735000      -0.00065600       0.00104300      -0.00111000
Si       9.51224000       7.51230000      11.52992000       0.00120600      -0.00019500       0.00056900
Si       3.92410000       6.05558000      11.52660000      -0.00061200      -0.00137700       0.00121100
Si      10.59262000      12.72628000       4.85614000       0.00077000      -0.00189200      -0.00037500
Si       2.83502000      12.73202000       8.55777000       0.00099000      -0.00059000      -0.00068100
Si       9.50768000       6.06010000       1.89020000       0.00132600      -0.00005700      -0.00161100
Si       3.91986000       7.51892000       1.88277000      -0.00144900      -0.00121100      -0.00110500
Si      10.59751000       0.84411000       8.55829000      -0.00053700      -0.00005400      -0.00024200
Si       4.86508000       2.91037000       0.76777000      -0.00048600      -0.00054900       0.00151600
Si      11.53867000       9.57818000       7.44040000       0.00044000      -0.00030600      -0.00078600
Si       0.76986000       4.93696000       2.82522000       0.00089100      -0.00061500      -0.00067600
Si       7.44344000      11.60471000       9.49784000      -0.00008100       0.00068700       0.00026800
Si       1.89761000       3.99671000       7.43255000      -0.00117100       0.00002800      -0.00147200
Si       8.56615000      10.66737000       0.76205000       0.00083400       0.00105500       0.00022600
Si       5.98393000      11.60840000       3.91191000       0.00000600       0.00173300      -0.00017500
Si      12.66170000       4.93362000      10.58744000      -0.00108800       0.00035600       0.00082800
Si      11.54099000       3.99135000       5.98029000       0.00224600      -0.00048000      -0.00019200
Si       4.86835000      10.66321000      12.64789000       0.00083200       0.00014200      -0.00043400
Si      12.65912000       8.63635000       2.82992000      -0.00074500       0.00063600       0.00031400
Si       5.99056000       1.96565000       9.50040000       0.00055800      -0.00070500       0.00132700
Si       8.56720000       2.90864000      12.65053000       0.00041000       0.00020300      -0.00098100
Si       1.88951000       9.58346000       5.97500000      -0.00099600       0.00122900      -0.00078300
Si       7.44743000       1.96559000       3.91639000      -0.00015800      -0.00139000      -0.00109200
Si       0.77472000       8.63753000      10.58397000       0.00027700      -0.00078700       0.00007100
Si       2.83463000       4.93644000       0.76098000      -0.00039300      -0.00146100       0.00104900
Si       9.50818000      11.60422000       7.43360000       0.00078400      -0.00018800      -0.00048800
Si       3.92519000       1.96635000       7.43718000      -0.00124000      -0.00052700      -0.00051900
Si      10.59374000       8.63701000       0.76667000       0.00005800       0.00032300       0.00085000
Si       2.83882000       8.63703000      12.64798000       0.00006700      -0.00027700      -0.00064600
Si       9.51149000       1.96513000       5.98039000       0.00115500      -0.00064800      -0.00039400
Si       3.91969000      11.60930000       5.97595000      -0.00114700       0.00114800      -0.00091700
Si      10.59737000       4.93448000      12.65144000      -0.00017100      -0.00000200      -0.00125900
Si       0.77543000       2.90991000       4.85559000       0.00101700      -0.00060500      -0.00113700
Si       7.44900000       9.57766000      11.52818000       0.00065000      -0.00004900       0.00075100
Si       4.86707000       0.84386000       2.82951000      -0.00012700       0.00122300      -0.00078700
Si      11.54066000       7.51168000       9.50211000       0.00066100       0.00004000      -0.00001700
Si       5.98965000       3.99352000      11.52928000      -0.00021300      -0.00067300       0.00240500
Si      12.65819000      10.66421000       4.85881000      -0.00108400       0.00054700       0.00049500
Si       1.89030000       7.51994000       3.91023000      -0.00119000       0.00002300      -0.00023100
Si       8.56797000       0.84509000      10.58575000       0.00007400       0.00136900       0.00110000
Si       7.44174000       3.99690000       1.89015000      -0.00143700      -0.00110500      -0.00187400
Si       0.76909000      10.66879000       8.55771000      -0.00062300       0.00000800      -0.00062800
Si       8.56532000      12.73146000       2.82654000       0.00064400      -0.00108600      -0.00002100
Si       1.89680000       6.06078000       9.49702000      -0.00059000      -0.00032300       0.00104000
Si      12.66247000       2.90646000       8.55867000      -0.00043100      -0.00000400      -0.00011600
Si       5.98480000       9.58124000       1.88318000       0.00061800       0.00069000      -0.00105400
Si      11.53960000       6.05459000       3.91563000       0.00091000      -0.00035700      -0.00093900
Si       4.86694000      12.72648000      10.58320000      -0.00043200      -0.00116100       0.00049400
O        3.34401000       1.11613000       3.33427000       0.00146600      -0.00026700       0.00152100
O       10.01759000       7.78383000      10.00686000       0.00123400       0.00018400       0.00111500
O        3.41953000       5.78818000      10.00256000      -0.00078200      -0.00025700       0.00051400
O       10.08805000      12.45883000       3.33211000      -0.00080900      -0.00029600       0.00072000
O       10.01486000       5.78810000       3.41253000       0.00054900      -0.00075700      -0.00092300
O        3.34219000      12.45999000      10.08011000       0.00079300      -0.00057200      -0.00108700
O        3.41519000       7.78645000       3.40700000      -0.00101100       0.00172000      -0.00193300
O       10.09286000       1.11161000      10.08253000      -0.00104000       0.00135300      -0.00181700
O        3.34055000       3.41391000       1.03519000       0.00096100       0.00069000       0.00067100
O       10.01413000      10.08170000       7.70775000       0.00078200       0.00064100       0.00108800
O        1.04324000       3.41442000       3.33149000       0.00007200       0.00126400       0.00114800
O        7.71680000      10.08217000      10.00410000       0.00027600       0.00137400       0.00070100
O        3.42044000       3.49054000       7.70401000       0.00006600      -0.00066300       0.00049700
O       10.08902000      10.16122000       1.03350000      -0.00088500      -0.00045300       0.00025400
O        5.71641000      10.08397000       3.40776000      -0.00018700       0.00028400      -0.00144800
O       12.39409000       3.40921000      10.08326000       0.00006700       0.00067200      -0.00127300
O       10.01763000       3.48763000       5.70731000       0.00095100      -0.00121300      -0.00048300
O        3.34495000      10.15953000      12.37489000       0.00149800      -0.00120900      -0.00024100
O        5.71690000       3.48796000      10.00654000      -0.00086400      -0.00129000       0.00050000
O       12.38543000      10.15868000       3.33605000      -0.00070400      -0.00141900       0.00092100
O        3.41443000      10.08556000       5.70759000      -0.00091300       0.00066100       0.00004800
O       10.09213000       3.41072000      12.38308000      -0.00082700       0.00085200       0.00003200
O        7.71422000       3.48993000       3.41246000       0.00068500      -0.00126000      -0.00067600
O        1.04161000      10.16186000      10.08004000       0.00053100      -0.00116100      -0.00124600
O        5.03868000       1.38574000       1.30595000       0.00065500       0.00009500       0.00134600
O       11.71225000       8.05355000       7.97855000       0.00057600       0.00008100       0.00121900
O        8.39528000      12.19163000       1.30220000      -0.00028100      -0.00093300       0.00080900
O        1.72671000       5.52095000       7.97270000      -0.00007300      -0.00082000       0.00064800
O        8.39473000       1.38470000      12.11006000      -0.00165800       0.00020400      -0.00185200
O        1.71703000       8.05953000       5.43453000      -0.00131700       0.00015000      -0.00149800
O       11.71345000       5.51503000       5.43965000      -0.00004800      -0.00014000      -0.00058200
O        5.04081000      12.18688000      12.10723000       0.00000100       0.00013500      -0.00106500
O        1.31507000       1.38591000       5.02896000       0.00128200       0.00037300       0.00064200
O        7.98865000       8.05365000      11.70154000       0.00044900       0.00104700       0.00056000
O        1.31104000       5.10900000       1.30167000       0.00043500       0.00052700       0.00051200
O        7.98463000      11.77678000       7.97432000       0.00001700       0.00029100       0.00042400
O        5.44863000       5.51722000      11.69954000      -0.00075100       0.00050900       0.00052600
O       12.11717000      12.18793000       5.02910000      -0.00113500       0.00026400       0.00053700
O        1.31450000       8.46571000      12.10817000       0.00078100      -0.00018700       0.00032600
O        7.98718000       1.79383000       5.44059000       0.00060600      -0.00035800       0.00045000
O       12.12231000       1.38243000       8.38637000      -0.00073800       0.00025800      -0.00103000
O        5.44464000       8.05721000       1.71083000      -0.00041200       0.00044900      -0.00087100
O       12.11807000       8.46484000       1.30603000      -0.00084500      -0.00047000       0.00033500
O        5.44951000       1.79417000       7.97652000      -0.00060900      -0.00040900       0.00021500
O        1.31052000      12.19267000       8.38817000       0.00024700      -0.00096900      -0.00061500
O        7.98317000       5.52076000       1.72062000       0.00048900      -0.00034400      -0.00043200
O        5.44416000      11.78003000       5.43624000       0.00001400      -0.00006800      -0.00040200
O       12.12185000       5.10527000      12.11175000       0.00003400      -0.00018000      -0.00056700
O        3.86822000       1.62960000       5.85385000       0.00077600       0.00004500       0.00300000
O       10.54181000       8.29732000      12.52647000      -0.00021400      -0.00058400       0.00078800
O        2.89580000       5.26365000      12.51926000      -0.00004300       0.00012600      -0.00082500
O        9.56430000      11.93439000       5.84877000      -0.00088100      -0.00077300       0.00142900
O        3.86161000      11.94616000       7.55902000       0.00050100       0.00039600      -0.00082900
O       10.53423000       5.27420000       0.89142000       0.00017800       0.00106000       0.00041300
O        2.89139000       8.30942000       0.88929000      -0.00038400       0.00091100      -0.00038000
O        9.56908000       1.63461000       7.56480000      -0.00083400       0.00112000      -0.00109100
O        5.85711000       3.94024000       1.55851000       0.00165700       0.00094900       0.00157800
O       12.53070000      10.60805000       8.23116000       0.00059600       0.00043700       0.00109400
O        1.55274000       5.93701000       3.85263000       0.00070700       0.00171200       0.00019600
O        8.22629000      12.60478000      10.52527000       0.00004200      -0.00011400      -0.00052300
O        0.89963000       2.96894000       8.21803000      -0.00070000       0.00053200      -0.00107400
O        7.56824000       9.63966000       1.54763000      -0.00253600      -0.00037000      -0.00077700
O        5.19407000      12.60202000       2.88280000       0.00177500      -0.00139600       0.00070700
O       11.87192000       5.92725000       9.55832000       0.00099000       0.00032900      -0.00013400
O       12.53802000       2.96174000       5.19598000      -0.00034800       0.00101500       0.00050000
O        5.86534000       9.63360000      11.86357000       0.00060000       0.00017100       0.00018300
O       11.87584000       7.63783000       3.85865000      -0.00063300      -0.00103800      -0.00001600
O        5.20729000       0.96711000      10.52914000       0.00014400       0.00042400      -0.00078400
O        7.57402000       3.93814000      11.86077000      -0.00108700      -0.00040400      -0.00003900
O        0.89630000      10.61297000       5.18524000       0.00111400      -0.00108300       0.00077000
O        8.23789000       0.97326000       2.88663000       0.00017300       0.00101500       0.00125300
O        1.56515000       7.64518000       9.55425000       0.00097800      -0.00077700       0.00030400
O        5.20591000       2.96465000      12.52738000       0.00119800       0.00078400      -0.00113100
O       11.87449000       9.63535000       5.85687000       0.00001500      -0.00017400       0.00181200
O        1.56475000       3.94012000       5.84826000       0.00126400       0.00058600       0.00211900
O        8.23831000      10.60788000      12.52090000       0.00027100      -0.00047000      -0.00028200
O        8.22571000       2.96964000       0.89059000      -0.00138600       0.00090700       0.00081300
O        1.55301000       9.64151000       7.55816000      -0.00120500       0.00062400      -0.00018400
O       11.87279000       3.93507000       7.56462000      -0.00036900      -0.00007600      -0.00040100
O        5.19514000      10.60987000       0.88911000      -0.00012500      -0.00061600       0.00031900
O        2.89086000      12.60292000       5.18609000       0.00064400      -0.00083700       0.00014600
O        9.56856000       5.92806000      11.86158000      -0.00028300       0.00087800      -0.00055400
O       12.53124000       5.26340000       2.88577000      -0.00083800       0.00046100       0.00028500
O        5.85855000      11.93527000       9.55336000       0.00102000      -0.00021000      -0.00050000
O        3.86647000       7.63882000      11.86276000      -0.00067600      -0.00038200      -0.00022400
O       10.53915000       0.96692000       5.19514000      -0.00137100       0.00084700       0.00059200
O        5.86424000       1.62841000       3.85887000       0.00216300       0.00035600       0.00030400
O       12.53775000       8.29635000      10.53145000       0.00193300       0.00023900      -0.00016300
O        3.86194000       5.93625000       1.54423000       0.00029600       0.00229400       0.00057800
O       10.53550000      12.60406000       8.21685000      -0.00023300       0.00076000       0.00003600
O        0.89746000       8.31022000       2.88085000      -0.00098300      -0.00023000      -0.00007600
O        7.57517000       1.63536000       9.55634000      -0.00300400       0.00018400      -0.00080200
O        2.89598000       0.97358000       8.22771000       0.00024200      -0.00038800       0.00057300
O        9.56455000       7.64427000       1.55721000      -0.00044100      -0.00164900       0.00106100
O        7.56691000      11.94604000       3.85389000      -0.00098000      -0.00018700       0.00030400
O        0.89844000       5.27531000      10.52442000       0.00028200       0.00040500      -0.00037600
