# LAMMPS data file converted from CONTCAR_MFI_monoclinic.vasp
# Generated with vasp2lammps.py
# Structure formula: SiO2
# Atom type mapping:
# Type 1: O (192 atoms)
# Type 2: Si (96 atoms)
# Total atoms: 288
# Atom style: atomic

Generated by pymatgen.io.lammps.data.LammpsData

288  atoms

  2  atom types

0.000000 19.699793  xlo xhi
0.000000 20.003291  ylo yhi
0.000000 13.342604  zlo zhi
-0.000092 -0.282340 -0.001316  xy xz yz

Masses

1  28.0855
2  15.9994

Atoms

1    1  0.894469  8.369631  8.993652
2    1 18.523831 11.620058  4.360326
3    1 10.886431  1.619326  2.324404
4    1  8.533038 18.371129 11.031646
5    1  0.474704  6.269264 11.109164
6    1 18.943394 13.720389  2.245901
7    1 10.466445  3.720446  4.438268
8    1  8.953260 16.270005  8.917823
9    1  1.211005  5.626254  0.685862
10   1 18.208985 14.363508 12.669237
11   1 10.918308  4.363244  7.357524
12   1  8.500715 15.627193  5.999499
13   1  1.210825  2.540809  0.373849
14   1 18.209216 17.449979 12.979755
15   1 10.918407  7.448322  7.044843
16   1  8.500202 12.542243  6.309636
17   1  0.299732  1.573130 10.912115
18   1 19.118460 18.418734  2.441597
19   1 10.290991  8.415504  4.241099
20   1  9.127511 11.574022  9.113359
21   1  0.922996  3.911864  9.110812
22   1 18.494520 16.078692  4.241832
23   1 10.914993  6.077912  2.440970
24   1  8.504211 13.912242 10.913164
25   1 16.151906  8.475140  8.939229
26   1  3.267571 11.515243  4.414104
27   1  6.444237  1.514310  2.268934
28   1 12.976728 18.474838 11.085878
29   1 17.070127  6.100779 10.837739
30   1  2.348485 13.889405  2.516695
31   1  7.362687  3.888598  4.167084
32   1 12.056878 16.101390  9.187915
33   1 16.250013  5.382814  0.315939
34   1  3.169190 14.608054 13.037901
35   1  6.259238  4.605190  6.987268
36   1 13.159382 15.383145  6.366937
37   1 16.202022  2.296432  0.329495
38   1  3.217201 17.694121 13.022530
39   1  6.210912  7.691037  7.001252
40   1 13.208058 12.297326  6.353952
41   1 16.910440  1.346713 10.908631
42   1  2.508726 18.644535  2.443825
43   1  7.201992  8.642392  4.238885
44   1 12.216816 11.347343  9.116530
45   1 16.370808  3.671731  9.005518
46   1  3.048688 16.319421  4.347898
47   1  6.661850  6.317666  2.336438
48   1 12.757290 13.672109 11.018786
49   1  8.569749  8.606501  8.734096
50   1 10.849795 11.383207  4.620376
51   1 18.560758  1.382911  2.062111
52   1  0.858836 18.607956 11.290272
53   1  9.128462  6.180511 10.651008
54   1 10.291841 13.807933  2.703556
55   1 19.119324  3.807025  3.979126
56   1  0.300005 16.183114  9.374161
57   1  8.678438  5.534008  0.243735
58   1 10.740693 14.455703 13.110770
59   1 18.386770  4.456783  6.913110
60   1  1.031696 15.534807  6.439076
61   1  8.576500  2.425685  0.325495
62   1 10.844667 17.564112 13.029352
63   1 18.283203  7.564977  6.995108
64   1  1.135500 12.426673  6.357559
65   1  9.158808  1.374870 10.831035
66   1 10.259905 18.615046  2.522911
67   1 19.150390  8.614425  4.159978
68   1  0.268997 11.377118  9.193153
69   1  8.397481  3.623545  9.003051
70   1 11.020838 16.365875  4.351849
71   1 18.389252  6.364942  2.332096
72   1  1.031230 13.626398 11.021278
73   1 13.058683  8.373112  9.066066
74   1  6.360278 11.616771  4.288589
75   1  3.350824  1.615867  2.394207
76   1 16.069936 18.374712 10.957915
77   1 12.258063  6.131397 11.015177
78   1  7.162287 13.856439  2.339673
79   1  2.548331  3.855416  4.343485
80   1 16.871370 16.133044  9.011012
81   1 13.106568  5.388449  0.548890
82   1  6.313101 14.602305 12.806483
83   1  3.115664  4.600155  7.218571
84   1 16.303911 15.387870  6.135264
85   1 13.146855  2.289291  0.385629
86   1  6.271673 17.701224 12.969835
87   1  3.155848  7.698911  7.055088
88   1 16.263192 12.288902  6.298634
89   1 12.244396  1.391991 10.753310
90   1  7.173953 18.597614  2.601380
91   1  2.535673  8.596208  4.081722
92   1 16.883638 11.393732  9.272773
93   1 13.313266  3.834128  9.313280
94   1  6.106989 16.154537  4.042429
95   1  3.604709  6.153106  2.642874
96   1 15.814545 13.835725 10.712904
97   2  1.195922  7.436832 10.268349
98   2 18.220391 12.554547  3.087474
99   2 11.187501  2.552575  3.598664
100  2  8.230947 17.435642  9.759377
101  2  1.128553  6.279417 12.575031
102  2 18.292092 13.707678  0.778975
103  2 11.118059  3.709465  5.904385
104  2  8.301744 16.283104  7.451808
105  2  0.754918  4.082139  0.530160
106  2 18.663248 15.907809 12.827653
107  2 10.462806  5.907409  7.200055
108  2  8.956258 14.083307  6.158599
109  2  1.141509  2.155441 12.164705
110  2 18.276878 17.838943  1.187661
111  2 11.132025  7.832256  5.493456
112  2  8.286223 12.155351  7.860228
113  2  0.613224  2.398310  9.564046
114  2 18.803078 17.592385  3.788476
115  2 10.604864  7.591119  2.893725
116  2  8.812766 12.398545 10.460624
117  2  0.736057  4.844896 10.408208
118  2 18.681170 15.145890  2.944186
119  2 10.728019  5.143762  3.736654
120  2  8.692458 14.845263  9.616817
121  2 16.397202  7.239852  9.933052
122  2  3.023829 12.750149  3.419303
123  2  6.689016  2.750658  3.262169
124  2 12.732322 17.239750 10.091010
125  2 16.176238  5.940788 12.163880
126  2  3.240311 14.050275  1.189445
127  2  6.469188  4.046677  5.493005
128  2 12.948236 15.941999  7.860834
129  2 16.712541  3.832627  0.380933
130  2  2.706626 16.158108 12.971789
131  2  6.722100  6.155433  7.051092
132  2 12.696520 13.832857  6.302638
133  2 15.958601  1.757027 12.147844
134  2  3.459273 18.234087  1.203785
135  2  6.251101  8.229193  5.477495
136  2 13.168364 11.760617  7.878323
137  2 16.480672  2.176267  9.595565
138  2  2.939816 17.814798  3.756688
139  2  6.771678  7.813718  2.925819
140  2 12.646794 12.176362 10.429362
141  2 17.102460  4.700741 10.025365
142  2  2.316580 15.289559  3.329069
143  2  7.394472  5.288848  3.355640
144  2 12.025600 14.701555  9.999924
145  2 18.578956  6.517084 11.223550
146  2  0.839163 13.472133  2.134302
147  2  8.871424  3.472378  4.550524
148  2 10.548072 16.518478  8.806009
149  2 18.435107  1.691520 11.302770
150  2  0.983379 18.300110  2.051677
151  2  8.726815  8.296427  4.630234
152  2 10.692010 11.693679  8.724648
153  2  2.219645  8.510265  8.086865
154  2 17.199428 11.475787  5.267924
155  2 12.212010  1.477609  1.418240
156  2  7.208817 18.513344 11.939681
157  2 19.405032  7.673436  8.149804
158  2  0.012526 12.317107  5.204259
159  2  9.698238  2.318043  1.480582
160  2  9.723070 17.674638 11.874597
161  2 16.909528  8.213135  7.536444
162  2  2.508872 11.778059  5.816153
163  2  7.202324  1.777626  0.866299
164  2 12.220021 18.209764 12.488857
165  2  2.436609  4.021971  8.560577
166  2 16.981338 15.967671  4.793092
167  2 12.428196  5.967426  1.890692
168  2  6.991311 14.024536 11.464037
169  2 -0.064106  4.367640  7.924285
170  2 19.482870 15.624111  5.427698
171  2  9.927000  5.623343  1.255151
172  2  9.492761 14.366521 12.098683
173  2 17.096477  3.743059  7.568215
174  2  2.321994 16.249731  5.785003
175  2  7.387178  6.246733  0.898758
176  2 12.031694 13.742702 12.456061
177  2  0.695499  0.047075 10.606493
178  2 18.723291 19.944780  2.748161
179  2 10.686726  9.941313  3.934831
180  2  8.731690 10.048278  9.420187
181  2 16.768866 19.779510 10.586933
182  2  2.650254  0.211874  2.764895
183  2  7.060413 10.212738  3.918219
184  2 12.358610  9.777006  9.437716
185  2 14.583499  8.627379  8.637753
186  2  4.835607 11.362742  4.717439
187  2  4.875913  1.362565  1.966038
188  2 14.545109 18.626996 11.387663
189  2 14.822925  4.069035  8.814036
190  2  4.596346 15.920505  4.539817
191  2  5.114474  5.918295  2.144746
192  2 14.304776 14.070248 11.211088
193  2 14.698901  5.510509  0.707216
194  2  4.720766 14.480090 12.648697
195  2  4.707784  4.477032  7.376254
196  2 14.711524 15.510399  5.980349
197  2 14.684375  2.193962  0.863720
198  2  4.735052 17.796231 12.489023
199  2  4.693018  7.793567  7.534160
200  2 14.725746 12.194616  5.819993
201  2  8.598992  7.491942  9.890905
202  2 10.824464 12.497459  3.463134
203  2 18.586857  2.498400  3.218177
204  2  0.831218 17.493049 10.133721
205  2  8.745652  6.286493 12.209973
206  2 10.673487 13.703096  1.144333
207  2 18.736982  3.702215  5.537791
208  2  0.680679 16.287404  7.815197
209  2  8.076777  3.975795 13.293413
210  2 11.341837 16.013769  0.061438
211  2 18.067755  6.013455  6.619691
212  2  1.351810 13.978285  6.731794
213  2  8.763161  1.601198 12.374881
214  2 10.660099 18.388797  0.980351
215  2 18.751259  8.388928  5.702471
216  2  0.667899 11.603574  7.650823
217  2  8.239082  2.259043  9.848636
218  2 11.177263 17.731640  3.508117
219  2 18.231822  7.730571  3.176361
220  2  1.187805 12.260823 10.176737
221  2  8.431514  4.875651 10.019932
222  2 10.986296 15.114159  3.334444
223  2 18.425432  5.113128  3.348272
224  2  0.996088 14.878547 10.005580
225  2 12.992791  7.408072 10.359256
226  2  6.425849 12.579750  2.993753
227  2  3.285614  2.580359  3.687841
228  2 16.134866 17.410141  9.664089
229  2 12.296652  6.244119 12.622183
230  2  7.123502 13.745736  0.732447
231  2  2.588570  3.742545  5.950031
232  2 16.832020 16.244474  7.404155
233  2 12.676328  3.838185  0.344779
234  2  6.742891 16.152579 13.011757
235  2  2.685976  6.150180  7.011330
236  2 16.733998 13.837576  6.340289
237  2 12.731576  1.635463 12.267366
238  2  6.682894 18.355364  1.088356
239  2  3.025574  8.353146  5.594720
240  2 16.392773 11.637018  7.760129
241  2 13.117946  2.285882  9.730673
242  2  6.303483 17.702633  3.625450
243  2  3.408358  7.701724  3.059287
244  2 16.010557 12.287201 10.295709
245  2 13.026981  4.763483 10.611005
246  2  6.394803 15.224780  2.745391
247  2  3.317247  5.222896  3.939139
248  2 16.101389 14.766309  9.416494
249  2 10.734550  6.066162 10.476172
250  2  8.685629 13.918936  2.879731
251  2  1.025260  3.917967  3.803360
252  2 18.394321 16.069717  9.552143
253  2 10.695018  1.819031 10.604972
254  2  8.723516 18.170211  2.745304
255  2  0.986288  8.168404  3.936171
256  2 18.432863 11.822350  9.417913
257  2  7.162030  8.576454  7.948345
258  2 12.256230 11.411152  5.408283
259  2 17.154442  1.410247  1.274232
260  2  2.265850 18.579799 12.076561
261  2  9.772609  8.390413  7.677009
262  2  9.646100 11.601853  5.675542
263  2  0.064966  1.599756  1.006946
264  2 19.355913 18.389437 12.346253
265  2 12.309612  7.678961  7.819510
266  2  7.109273 12.313530  5.533788
267  2  2.603278  2.311073  1.147178
268  2 16.818201 17.679218 12.204100
269  2  7.131034  3.743779  8.023927
270  2 12.288817 16.244803  5.329273
271  2 17.122243  6.243207  1.353913
272  2  2.298609 13.747276 11.999000
273  2  9.766401  3.566979  8.149895
274  2  9.652730 16.422379  5.206232
275  2  0.059106  6.422097  1.479781
276  2 19.361467 13.569992 11.873795
277  2 12.323206  4.261272  8.125748
278  2  7.095606 15.727808  5.231331
279  2  2.616170  5.725319  1.454146
280  2 16.803548 14.263675 11.901269
281  2  8.982327 19.818227 10.495258
282  2 10.434940  0.171948  2.858161
283  2 18.976009 10.173905  3.823906
284  2  0.444130  9.817375  9.527674
285  2 12.425769 19.831609 10.396733
286  2  6.993716  0.157807  2.960038
287  2  2.717906 10.159093  3.723396
288  2 16.702261  9.830700  9.630395

