# LAMMPS data file converted from CONTCAR_MFI_orthorombic.vasp
# Generated with vasp2lammps.py
# Structure formula: SiO2
# Atom type mapping:
# Type 1: O (192 atoms)
# Type 2: Si (96 atoms)
# Total atoms: 288
# Atom style: atomic

Generated by pymatgen.io.lammps.data.LammpsData

288  atoms

  2  atom types

0.000000 19.757742  xlo xhi
0.000000 19.868491  ylo yhi
0.000000 13.273298  zlo zhi
-0.000001 -0.000010 -0.000848  xy xz yz

Masses

1  28.0855
2  15.9994

Atoms

1    1  8.385053  1.094811  8.473296
2    1  5.946196  0.533205 10.352294
3    1  5.594438  1.293122  0.037584
4    1  2.435245  1.324002  0.063998
5    1  1.400505  0.544940 10.560217
6    1  3.460523  1.061051  8.476456
7    1  8.297122 16.435558  8.723667
8    1  5.911311 17.277584 10.559440
9    1  5.316915 16.447184  0.227846
10   1  2.240433 16.418527  0.124180
11   1  1.254784 17.291928 10.578392
12   1  3.479885 16.468338  8.757435
13   1  1.493818 18.773032  1.836296
14   1  3.933108 19.334438  3.714056
15   1  4.285102 18.575856  6.673706
16   1  7.444336 18.544522  6.699890
17   1  8.478313 19.322816  3.922624
18   1  6.419335 18.806690  1.838219
19   1  1.582259  3.433410  2.087689
20   1  3.967121  2.590720  3.923560
21   1  4.562169  3.420232  6.866064
22   1  7.638878  3.449598  6.761753
23   1  8.623948  2.575797  3.941622
24   1  6.398535  3.401440  2.121820
25   1 11.372664 11.029249  4.800371
26   1 13.811900 10.467837  2.922607
27   1 14.163881 11.225573 13.236281
28   1 17.323128 11.256931 13.210034
29   1 18.357152 10.479489  2.714010
30   1 16.298141 10.995590  4.798393
31   1 11.461100  6.500393  4.548985
32   1 13.845941  7.343093  2.713128
33   1 14.440940  6.512748 13.043928
34   1 17.517651  6.483375 13.148200
35   1 18.502795  7.358018  2.695023
36   1 16.277387  6.532380  4.514790
37   1 18.263909  8.838139 11.436633
38   1 15.824984  9.399727  9.557656
39   1 15.473215  8.640664  6.599037
40   1 12.314030  8.609794  6.572671
41   1 11.279351  9.388036  9.349749
42   1 13.339319  8.871884 11.433546
43   1 18.175964 13.365894 11.186254
44   1 15.790132 12.523870  9.350466
45   1 15.195708 13.355145  6.408752
46   1 12.119223 13.383793  6.512460
47   1 11.133643 12.509545  9.331561
48   1 13.358748 13.333122 11.152556
49   1 11.372671 18.773082  4.800469
50   1 13.811563 19.334406  2.921338
51   1 14.163335 18.574148 13.236158
52   1 17.322533 18.543358 13.209755
53   1 18.357257 19.322764  2.713467
54   1 16.297233 18.806898  4.797365
55   1 11.460564  3.432079  4.550023
56   1 13.846464  2.589989  2.714211
57   1 14.440793  3.420343 13.045847
58   1 17.517281  3.448948 13.149495
59   1 18.502974  2.575783  2.695266
60   1 16.277824  3.399365  4.516211
61   1 18.263916  1.094358 11.437429
62   1 15.824585  0.533228  9.559579
63   1 15.472560  1.292162  6.600079
64   1 12.313324  1.323420  6.573896
65   1 11.279354  0.544795  9.351070
66   1 13.338366  1.060660 11.435552
67   1 18.175526 16.434242 11.185996
68   1 15.790567 17.276993  9.350100
69   1 15.195606 16.447530  6.407651
70   1 12.118918 16.418207  6.511922
71   1 11.133796 17.291791  9.332012
72   1 13.359213 16.466125 11.151812
73   1  8.385065  8.838648  8.472502
74   1  5.945788  9.399796 10.350367
75   1  5.593783  8.641686  0.036527
76   1  2.434537  8.610424  0.062761
77   1  1.400513  9.388184 10.558886
78   1  3.459564  8.872362  8.474447
79   1  8.296685 13.367235  8.723924
80   1  5.911736 12.524479 10.559797
81   1  5.316822 13.354764  0.228941
82   1  2.240137 13.384103  0.124716
83   1  1.254942 12.509666 10.577937
84   1  3.480344 13.335335  8.758168
85   1  1.493823 11.029259  1.836196
86   1  3.932775 10.467941  3.715316
87   1  4.284552 11.227356  6.673824
88   1  7.443739 11.258123  6.700163
89   1  8.478412 10.479550  3.923158
90   1  6.418434 10.995437  1.839226
91   1  1.581724  6.501759  2.086649
92   1  3.967647  7.343840  3.922473
93   1  4.562014  6.512627  6.864150
94   1  7.638506  6.484021  6.760455
95   1  8.624128  7.358036  3.941370
96   1  6.398973  6.534459  2.120390
97   2  7.103207  1.171973  9.439260
98   2  5.861597  1.365564 11.728383
99   2  4.013631  1.158705  0.359791
100  2  2.148910  1.333767 11.755325
101  2  1.994498  1.027324  9.143144
102  2  4.530534  0.633190  9.600913
103  2  7.000724 16.507289  9.668024
104  2  5.940158 16.636596 12.030659
105  2  3.772624 16.933396  0.217031
106  2  1.751360 16.457280 11.864879
107  2  1.955776 16.692121  9.251722
108  2  4.449686 17.079458  9.901371
109  2  6.269277 18.847648 10.644962
110  2  1.666802 18.836236 10.770928
111  2  8.550764  2.490810  7.679582
112  2  8.228906 19.772171  7.393091
113  2  7.984367 17.156662  7.314612
114  2  3.744449  2.548829  7.938578
115  2  3.529914  0.010992  7.252998
116  2  3.721797 17.228826  7.356851
117  2 19.580080  0.848801 10.551779
118  2 19.410084 17.161664 10.436762
119  2  2.775678 18.694509  2.802223
120  2  4.018251 18.503845  5.091093
121  2  5.865904 18.708260  6.996503
122  2  7.729769 18.534232  5.117763
123  2  7.885026 18.839354  2.505660
124  2  5.348518 19.233338  2.962486
125  2  2.877522  3.362789  3.033761
126  2  3.937451  3.227643  5.396479
127  2  6.106617  2.934730  6.854109
128  2  8.128722  3.408993  5.229488
129  2  7.922633  3.177712  2.616037
130  2  5.428805  2.791407  3.266486
131  2  3.609691  1.020304  4.004561
132  2  8.210994  1.031494  4.132144
133  2  1.328061 17.378050  1.040798
134  2  1.649901  0.097143  0.757751
135  2  1.897027  2.712420  0.679075
136  2  6.135985 17.319573  1.298455
137  2  6.350847 19.858436  0.616204
138  2  6.156120  2.640285  0.721733
139  2 10.056600 19.019864  3.915029
140  2 10.226401  2.705314  3.799396
141  2 12.654545 11.107753  3.834476
142  2 13.897019 11.298432  1.545556
143  2 15.744752 11.093164 12.913482
144  2 17.608653 11.268075  1.518856
145  2 17.763863 10.962976  4.130953
146  2 15.227406 10.568937  3.674154
147  2 12.756432  6.571032  3.602963
148  2 13.816250  6.706222  1.240188
149  2 15.985454  6.998273 13.055845
150  2 18.007582  6.524820  1.407170
151  2 17.801536  6.756082  4.020604
152  2 15.307728  7.142411  3.370133
153  2 13.488489  8.913489  2.632137
154  2 18.089811  8.902315  2.504533
155  2 11.206907 12.424248  5.595875
156  2 11.528683  9.836628  5.878927
157  2 11.775809  7.221395  5.957640
158  2 16.014783 12.482694  5.338170
159  2 16.229665  9.943845  6.020426
160  2 16.034954  7.293523  5.914891
161  2  0.177728 10.782422  2.721584
162  2  0.347537  7.228545  2.837223
163  2 16.982071  8.760945 10.470651
164  2 15.740357  8.567372  8.181575
165  2 13.892472  8.775075  6.276828
166  2 12.027801  8.599208  8.154662
167  2 11.873322  8.905681 10.766843
168  2 14.409422  9.299733 10.309070
169  2 16.879625 13.294160 10.241849
170  2 15.818961 13.164898  7.879273
171  2 13.651469 12.868961  6.419597
172  2 11.630229 13.344194  8.045068
173  2 11.834684 13.109317 10.658236
174  2 14.328601 12.721998 10.008609
175  2 16.148062 10.953772  9.264948
176  2 11.545633 10.965225  9.138988
177  2 18.429602  7.442166 12.230376
178  2 18.107704 10.029274 12.516816
179  2 17.863152 12.644797 12.595291
180  2 13.623205  7.384103 11.971394
181  2 13.408728  9.921957 12.656984
182  2 13.600640 12.572627 12.553133
183  2  9.701222  9.084156  9.358200
184  2  9.531227 12.639836  9.473221
185  2 12.654500 18.695863  3.834460
186  2 13.896204 18.501810  1.545396
187  2 15.744139 18.708561 12.913928
188  2 17.608807 18.533828  1.518470
189  2 17.763254 18.840658  4.130624
190  2 15.227164 19.234513  3.672852
191  2 12.757056  3.360031  3.605804
192  2 13.817661  3.231384  1.243167
193  2 15.985074  2.934091 13.056704
194  2 18.006353  3.410503  1.408844
195  2 17.801937  3.175411  4.021992
196  2 15.308066  2.787960  3.372390
197  2 13.488585  1.019916  2.628261
198  2 18.091070  1.031457  2.502527
199  2 11.206969 17.377190  5.594351
200  2 11.528817  0.095818  5.880544
201  2 11.773187  2.711298  5.959283
202  2 16.013482 17.319197  5.335443
203  2 16.227798 19.857099  6.020682
204  2 16.035845  2.639240  5.916966
205  2  0.177652 19.018767  2.721931
206  2  0.347657  2.706111  2.836988
207  2 16.982064  1.172941 10.471494
208  2 15.739385  1.364096  8.182686
209  2 13.891763  1.159754  6.277253
210  2 12.027905  1.333522  8.156017
211  2 11.872692  1.028035 10.768092
212  2 14.409219  0.634239 10.311261
213  2 16.880211 16.505183 10.240040
214  2 15.820188 16.639662  7.877350
215  2 13.651165 16.933104  6.419589
216  2 11.629131 16.458493  8.044223
217  2 11.835122 16.690029 10.657654
218  2 14.328907 17.076437 10.007281
219  2 16.147899 18.847418  9.268684
220  2 11.546581 18.836128  9.141311
221  2 18.429655  2.489240 12.233119
222  2 18.107850 19.770122 12.515852
223  2 17.860852 17.154915 12.594833
224  2 13.621605  2.547713 11.975549
225  2 13.406877  0.008744 12.657427
226  2 13.601666 17.226950 12.552099
227  2  9.701095  0.847886  9.358750
228  2  9.531355 17.162190  9.474291
229  2  7.103215  8.760105  9.438413
230  2  5.860612  8.568906 11.727256
231  2  4.012917  8.774102  0.359351
232  2  2.149015  8.599452 11.753966
233  2  1.993861  8.904920  9.141886
234  2  4.530334  9.298799  9.598710
235  2  7.001307 13.296294  9.669817
236  2  5.941375 13.161778 12.032574
237  2  3.772325 12.869165  0.217056
238  2  1.750275 13.342964 11.865726
239  2  1.956210 13.111457  9.252296
240  2  4.449987 12.725021  9.902683
241  2  6.269112 10.954090 10.641234
242  2  1.667756 10.965345 10.768605
243  2  8.550811  7.443737  7.676835
244  2  8.229062 10.031367  7.394049
245  2  7.982077 12.646552  7.315061
246  2  3.742848  7.385304  7.934422
247  2  3.528058  9.924269  7.252552
248  2  3.722815 12.574533  7.357865
249  2 19.579945  9.085110 10.551230
250  2 19.410210 12.639245 10.435691
251  2  2.775618 11.106495  2.802243
252  2  4.017439 11.300530  5.091242
253  2  5.865297 11.092955  6.996053
254  2  7.729910 11.268479  5.118138
255  2  7.884423 10.961620  2.505979
256  2  5.348264 10.567844  2.963761
257  2  2.878149  6.573792  3.030911
258  2  3.938857  6.702404  5.393501
259  2  6.106237  6.998850  6.853248
260  2  8.127492  6.523326  5.227814
261  2  7.923035  6.758437  2.614642
262  2  5.429144  7.145867  3.264223
263  2  3.609792  8.913932  4.008429
264  2  8.212256  8.902371  4.134140
265  2  1.328130 12.425131  1.042318
266  2  1.650029  9.838050  0.756140
267  2  1.894395  7.222531  0.677428
268  2  6.134714 12.483155  1.301156
269  2  6.348988  9.945230  0.615934
270  2  6.157015  7.294587  0.719645
271  2 10.056520 10.783580  3.914686
272  2 10.226522  7.227666  3.799620
273  2  8.668643 14.901325  8.424321
274  2  3.775683 14.901827  8.542504
275  2  5.413159 14.901135  0.658312
276  2  2.127674 14.901421  0.655405
277  2  1.210240  4.967428  1.787705
278  2  6.103203  4.967885  1.905800
279  2  4.465752  4.966701  7.295096
280  2  7.751351  4.967053  7.292046
281  2 11.089091  4.966395  4.848977
282  2 15.982047  4.965935  4.730781
283  2 14.344552  4.966274 12.614959
284  2 17.630077  4.965924 12.617904
285  2 18.547475 14.900140 11.485600
286  2 13.654547 14.899641 11.367506
287  2 15.291993 14.901177  5.978213
288  2 12.006416 14.900891  5.981222

