144
Lattice="14.888959882 0.001154469 0.000104527 0.001154772 14.888204216 0.000382076 0.000104453 0.00038192 14.889923289" Properties=species:S:1:pos:R:3:forces:R:3 stress="-0.0018733327905517269 5.7047393410572985e-06 -4.868377118188941e-07 5.7047393410572985e-06 -0.0018730456811319363 -1.8724527377649774e-08 -4.868377118188941e-07 -1.8724527377649774e-08 -0.0018745311603038967" free_energy=-965.39380921 energy=-965.39380921 pbc="T T T"
Si       3.70869000       1.52951000       5.89059000       0.00093500      -0.00053100      -0.00139500
Si      11.15380000       8.97438000      13.33579000       0.00103900      -0.00076600      -0.00144400
Si       3.70956000       5.87717000      13.33549000      -0.00143800      -0.00000600      -0.00048500
Si      11.15457000      13.32166000       5.89077000      -0.00111000      -0.00012200      -0.00038600
Si       3.71058000      13.31913000       8.98898000      -0.00059100      -0.00091600      -0.00000400
Si      11.15443000       5.87542000       1.54388000      -0.00072800      -0.00110000      -0.00013600
Si       3.70763000       8.97493000       1.54403000       0.00070200       0.00032900      -0.00025500
Si      11.15158000       1.53159000       8.98885000       0.00065100       0.00027100      -0.00026300
Si       5.88233000       3.70377000       1.54309000       0.00036300      -0.00037500       0.00018900
Si      13.32744000      11.14865000       8.98830000      -0.00009800      -0.00053300      -0.00005400
Si       1.53578000       5.87526000       3.71687000       0.00009400       0.00058100      -0.00041700
Si       8.98089000      13.32013000      11.16207000       0.00028600       0.00062300      -0.00053500
Si       1.53420000       3.70244000       8.98871000      -0.00093800       0.00195700       0.00118400
Si       8.97921000      11.14693000       1.54399000      -0.00068600       0.00180000       0.00122600
Si       5.88287000      13.32003000       3.71810000       0.00002300       0.00018100      -0.00048700
Si      13.32682000       5.87670000      11.16292000      -0.00013900       0.00012100      -0.00045000
Si      13.32540000       3.70478000       5.89088000      -0.00106800      -0.00123700       0.00013200
Si       5.88155000      11.14849000      13.33598000      -0.00099500      -0.00128300       0.00007500
Si      13.32518000       8.97474000       3.71818000       0.00065500      -0.00081700       0.00127200
Si       5.88017000       1.53024000      11.16288000       0.00095000      -0.00077500       0.00086300
Si       8.98073000       3.70356000      13.33520000       0.00003400       0.00026000       0.00070200
Si       1.53680000      11.14688000       5.89039000      -0.00068100       0.00031200       0.00049100
Si       8.97867000       1.52987000       3.71769000       0.00109600      -0.00011500      -0.00014200
Si       1.53482000       8.97359000      11.16279000       0.00081600      -0.00031800       0.00002000
Si       3.70875000       5.87678000       1.54334000      -0.00020200       0.00026800       0.00045000
Si      11.15386000      13.32165000       8.98855000       0.00009500       0.00010900       0.00029200
Si       3.70794000       1.52898000       8.98852000       0.00054500      -0.00092800       0.00114100
Si      11.15296000       8.97347000       1.54380000       0.00079400      -0.00118300       0.00113000
Si       3.70854000       8.97521000      13.33533000       0.00033300       0.00006300       0.00017200
Si      11.15239000       1.53150000       5.89022000       0.00039000      -0.00001500       0.00014500
Si       3.71091000      13.31927000       5.89091000      -0.00089200      -0.00072300       0.00027900
Si      11.15487000       5.87593000      13.33574000      -0.00082700      -0.00089400       0.00020800
Si       1.53463000       3.70281000       5.89084000      -0.00107000       0.00065700      -0.00064300
Si       8.97974000      11.14768000      13.33605000      -0.00095100       0.00057000      -0.00077700
Si       5.88061000       1.53065000       3.71665000       0.00060400       0.00006200      -0.00085100
Si      13.32572000       8.97552000      11.16185000       0.00038300       0.00004100      -0.00111800
Si       5.88261000       3.70425000      13.33543000       0.00045400      -0.00057700       0.00005300
Si      13.32763000      11.14874000       5.89071000      -0.00016700      -0.00064700       0.00039000
Si       1.53473000       8.97338000       3.71740000       0.00024800       0.00058000      -0.00007900
Si       8.97867000       1.53004000      11.16220000       0.00047300       0.00074200       0.00011900
Si       8.98076000       3.70237000       1.54365000       0.00014000       0.00104600      -0.00017200
Si       1.53690000      11.14609000       8.98876000      -0.00034600       0.00110800       0.00004500
Si       8.98062000      13.31952000       3.71855000       0.00015400       0.00072600       0.00016600
Si       1.53561000       5.87503000      11.16327000      -0.00013200       0.00060100      -0.00008700
Si      13.32518000       3.70468000       8.98891000      -0.00044600      -0.00073200       0.00013800
Si       5.88123000      11.14801000       1.54409000      -0.00045400      -0.00073200       0.00005800
Si      13.32627000       5.87687000       3.71776000      -0.00025200      -0.00108400      -0.00062900
Si       5.88242000      13.32058000      11.16286000      -0.00016800      -0.00090000      -0.00052300
O        4.98702000       1.95064000       4.99599000       0.00025200       0.00004400       0.00220200
O       12.43213000       9.39551000      12.44119000       0.00016400       0.00007500       0.00229700
O        2.42932000       5.45696000      12.44316000       0.00086400      -0.00097900       0.00018200
O        9.87434000      12.90145000       4.99844000       0.00054300      -0.00098800      -0.00012500
O       12.43500000       5.45748000       2.43663000      -0.00025800      -0.00003100       0.00097600
O        4.99115000      12.90118000       9.88172000      -0.00041800      -0.00001500       0.00087900
O        2.42697000       9.39314000       2.43676000      -0.00113900       0.00059300       0.00027700
O        9.87092000       1.94980000       9.88157000      -0.00111400       0.00062400       0.00029300
O        4.99018000       4.98492000       1.96062000      -0.00021700       0.00066700      -0.00124700
O       12.43529000      12.42979000       9.40584000      -0.00044500       0.00086000      -0.00132800
O        1.95483000       4.98176000       4.99656000      -0.00115400       0.00029300       0.00252100
O        9.39994000      12.42663000      12.44176000      -0.00118000       0.00027600       0.00254600
O        2.42673000       2.42130000       9.40538000       0.00068900      -0.00046900       0.00017300
O        9.87176000       9.86579000       1.96065000       0.00027800      -0.00011100       0.00021500
O        5.46389000      12.42902000       2.43658000       0.00065300       0.00012800      -0.00044700
O       12.90784000       4.98569000       9.88140000       0.00064200       0.00008500      -0.00050100
O       12.43249000       2.42468000       5.47153000      -0.00017600       0.00023200      -0.00099000
O        4.98864000       9.86839000      12.91664000      -0.00017800       0.00025800      -0.00098800
O        5.46281000       2.42382000      12.44316000      -0.00026400       0.00085500      -0.00098900
O       12.90778000       9.86831000       4.99846000      -0.00018200       0.00045300      -0.00140200
O        2.43032000      12.42685000       5.47180000      -0.00040100       0.00034000       0.00021500
O        9.87428000       4.98351000      12.91662000      -0.00051700       0.00027400       0.00018400
O        9.39812000       2.42188000       2.43682000       0.00045000      -0.00134600       0.00053600
O        1.95426000       9.86561000       9.88194000       0.00052200      -0.00118500       0.00032100
O        5.46303000       2.42333000       2.43571000      -0.00027900       0.00039100       0.00065200
O       12.90813000       9.86821000       9.88091000      -0.00023000       0.00022400       0.00081600
O        9.39861000      12.42603000       2.43854000      -0.00080900      -0.00077600      -0.00266000
O        1.95360000       4.98153000       9.88325000      -0.00077700      -0.00066600      -0.00254000
O        9.39807000       2.42271000      12.44254000      -0.00003200      -0.00088700      -0.00050300
O        1.95416000       9.86603000       4.99774000       0.00000400      -0.00073500      -0.00034200
O       12.90676000       4.98557000       4.99884000       0.00048800      -0.00060700      -0.00004600
O        5.46291000      12.42928000      12.44393000       0.00048400      -0.00058200      -0.00005300
O        2.42678000       2.42130000       5.47440000       0.00096400       0.00006900       0.00015800
O        9.87189000       9.86616000      12.91961000       0.00080600       0.00024100       0.00018300
O        2.42854000       5.45712000       2.43612000       0.00069500      -0.00112100       0.00082800
O        9.87365000      12.90199000       9.88132000       0.00042900      -0.00109900       0.00107200
O        4.99098000       4.98566000      12.91770000      -0.00002900       0.00021700       0.00140800
O       12.43601000      12.43016000       5.47298000      -0.00018800       0.00041300       0.00135100
O        2.42764000       9.39319000      12.44296000      -0.00164000       0.00022100      -0.00029600
O        9.87149000       1.94948000       4.99786000      -0.00168400       0.00021200      -0.00032100
O       12.43165000       2.42489000       9.40789000      -0.00010600      -0.00065100       0.00077000
O        4.98770000       9.86822000       1.96307000      -0.00022900      -0.00074300       0.00075000
O       12.43173000       9.39347000       2.43843000      -0.00050900      -0.00094500      -0.00256500
O        4.98671000       1.94899000       9.88315000      -0.00041200      -0.00094800      -0.00247500
O        2.43086000      12.42555000       9.40794000      -0.00106500      -0.00023300      -0.00031000
O        9.87471000       4.98183000       1.96284000      -0.00097600      -0.00012900      -0.00029600
O        4.99142000      12.89984000       4.99886000      -0.00042100      -0.00002300      -0.00015000
O       12.43539000       5.45651000      12.44368000      -0.00048000      -0.00002600      -0.00008300
O        4.11387000       1.78080000       7.43968000      -0.00075600      -0.00024200       0.00050200
O       11.55899000       9.22566000      14.88488000      -0.00077900      -0.00019900       0.00058600
O        3.30434000       5.62530000      14.88429000      -0.00032600       0.00134200       0.00095200
O       10.74935000      13.06979000       7.43957000      -0.00035200       0.00135300       0.00103800
O        4.11486000      13.06716000       7.43999000      -0.00181000       0.00043400      -0.00043600
O       11.55882000       5.62383000      14.88481000      -0.00177000       0.00045700      -0.00027200
O        3.30438000       9.22736000      14.88454000       0.00091800      -0.00010600       0.00009700
O       10.74824000       1.78364000       7.43943000       0.00088500      -0.00011700       0.00013400
O        7.43162000       4.10680000       1.79564000      -0.00024800      -0.00031500       0.00043400
O       14.87671000      11.55168000       9.24085000       0.00077100      -0.00033900       0.00044700
O        1.78796000       7.42431000       4.12118000       0.00110200       0.00037800      -0.00153000
O        9.23308000      14.86918000      11.56639000       0.00107100       0.00021500      -0.00152200
O       14.87400000       3.29949000       9.24103000       0.00228800       0.00014200       0.00054100
O        7.43005000      10.74282000       1.79621000       0.00227400       0.00017200       0.00053100
O        5.62970000      14.86922000       3.31489000      -0.00016800      -0.00003700       0.00026900
O       13.07365000       7.42589000      10.75971000      -0.00015600       0.00008600       0.00025100
O       14.87431000       3.30066000       5.63806000       0.00252800      -0.00083500      -0.00001700
O        7.43046000      10.74438000      13.08316000       0.00243900      -0.00080800      -0.00001400
O       13.07260000       7.42564000       4.12179000       0.00009500       0.00045700      -0.00092600
O        5.62872000      14.86935000      11.56689000       0.00013700       0.00015500      -0.00090300
O        7.43171000       4.10760000      13.08254000      -0.00046100      -0.00069500      -0.00024400
O       14.87672000      11.55205000       5.63781000       0.00050800      -0.00062500      -0.00023600
O        9.23207000      14.86872000       3.31443000       0.00114900       0.00098300       0.00089500
O        1.78706000       7.42423000      10.75915000       0.00118600       0.00118400       0.00089900
O        5.62991000       3.29963000      14.88415000       0.00130000      -0.00081400       0.00024600
O       13.07492000      10.74413000       7.43944000       0.00134900      -0.00079500       0.00028700
O        1.78604000       4.10806000       7.43983000       0.00014800      -0.00068400      -0.00006400
O        9.23115000      11.55294000      14.88503000       0.00012400      -0.00067400       0.00008200
O        9.23328000       3.29939000      14.88428000      -0.00000300       0.00024900       0.00038200
O        1.78933000      10.74272000       7.43947000       0.00006500       0.00025700       0.00035400
O       13.07269000       4.10822000       7.43988000       0.00049600      -0.00197700       0.00024600
O        5.62884000      11.55193000      14.88498000       0.00050400      -0.00196700       0.00034800
O        3.30729000      14.86828000       5.63784000      -0.00000700       0.00207200      -0.00082300
O       10.75125000       7.42495000      13.08267000      -0.00001100       0.00237700      -0.00083900
O       14.87533000       5.62448000       3.31393000       0.00043000       0.00078800       0.00000200
O        7.43148000      13.06821000      10.75904000       0.00033500       0.00076500      -0.00001100
O        4.11272000       7.42626000      13.08227000      -0.00199900      -0.00058200      -0.00050500
O       11.55772000      14.87075000       5.63755000      -0.00200100      -0.00043700      -0.00051500
O        7.42956000       1.78302000       4.12136000       0.00024600      -0.00029800      -0.00191800
O       14.87467000       9.22789000      11.56657000       0.00062900      -0.00028700      -0.00190200
O        4.11183000       7.42590000       1.79649000      -0.00084100      -0.00004800       0.00089100
O       11.55694000      14.87077000       9.24169000      -0.00085600       0.00008300       0.00090800
O       14.87434000       9.22615000       3.31367000       0.00028500       0.00076000       0.00073700
O        7.42933000       1.78163000      10.75834000      -0.00008100       0.00077000       0.00088100
O        3.30551000      14.86789000       9.24133000       0.00056500       0.00303200       0.00080400
O       10.74937000       7.42418000       1.79623000       0.00054500       0.00323800       0.00079200
O        7.43162000      13.06719000       4.12255000      -0.00065300       0.00134100      -0.00130700
O       14.87557000       5.62385000      11.56737000      -0.00039000       0.00134700      -0.00130100
