144
Lattice="13.3765223 -0.00191195 0.00040599 -0.001923193 13.383223061 -0.001076338 0.000395549 -0.0010784 13.377239274" Properties=species:S:1:pos:R:3:forces:R:3 stress="-0.006871102634429354 4.200535641719432e-06 -9.050188232530724e-07 4.200535641719432e-06 -0.006874978611596528 -1.1484376791625197e-06 -9.050188232530724e-07 -1.1484376791625197e-06 -0.006871620679686803" free_energy=-965.22227142 energy=-965.22227142 pbc="T T T"
Si       2.73477000       0.74504000       4.93784000      -0.00025800       0.00046500       0.00145800
Si       9.42224000       7.43515000      11.62614000      -0.00020800       0.00012400       0.00035100
Si       3.80929000       5.95563000      11.62634000      -0.00044200      -0.00048500      -0.00041400
Si      10.49636000      12.64681000       4.93738000       0.00026600      -0.00089400       0.00063300
Si       2.73282000      12.64947000       8.63617000      -0.00009800      -0.00009200      -0.00020400
Si       9.42181000       5.95745000       1.94832000       0.00126300      -0.00055100      -0.00008600
Si       3.80889000       7.43708000       1.94689000      -0.00028000       0.00165100       0.00088800
Si      10.49831000       0.74398000       8.63627000      -0.00011500       0.00049100      -0.00042900
Si       4.76579000       2.81596000       0.83920000       0.00086900       0.00110600       0.00058600
Si      11.45329000       9.50610000       7.52751000       0.00085300       0.00007800       0.00057900
Si       0.66696000       4.84921000       2.90601000       0.00001700      -0.00000900       0.00230600
Si       7.35444000      11.53934000       9.59429000       0.00030900      -0.00090500       0.00081500
Si       1.77822000       3.88721000       7.52714000      -0.00088400       0.00015400       0.00038100
Si       8.46532000      10.57844000       0.83817000      -0.00083100      -0.00077000      -0.00060200
Si       5.87384000      11.54035000       3.97748000      -0.00014500      -0.00003100       0.00006300
Si      12.56326000       4.84723000      10.66687000      -0.00039700       0.00090800      -0.00016000
Si      11.45652000       3.88673000       6.04641000       0.00072600      -0.00027500      -0.00081300
Si       4.76749000      10.57881000      12.73428000       0.00065900      -0.00118300      -0.00089500
Si      12.56401000       8.54459000       2.90642000       0.00065500      -0.00129500       0.00054500
Si       5.87692000       1.85342000       9.59538000      -0.00058200      -0.00098500      -0.00069300
Si       8.46505000       2.81319000      12.73654000       0.00033300       0.00137800      -0.00001000
Si       1.77565000       9.50631000       6.04718000      -0.00076800       0.00015800      -0.00038900
Si       7.35769000       1.85316000       3.97933000       0.00058400       0.00008900      -0.00018000
Si       0.66867000       8.54520000      10.66722000      -0.00022700      -0.00046500      -0.00091100
Si       2.73381000       4.84893000       0.83758000       0.00038900      -0.00053600       0.00134200
Si       9.42129000      11.53904000       7.52585000       0.00012100      -0.00082700       0.00134400
Si       3.80897000       1.85375000       7.52820000      -0.00130400      -0.00069200       0.00128800
Si      10.49605000       8.54494000       0.83930000      -0.00182200      -0.00150300      -0.00016200
Si       2.73620000       8.54477000      12.73552000       0.00046500       0.00077400      -0.00034400
Si       9.42522000       1.85271000       6.04765000       0.00005600       0.00044200      -0.00077500
Si       3.80677000      11.54079000       6.04635000       0.00019900       0.00074900       0.00124700
Si      10.49617000       4.84770000      12.73573000      -0.00015300       0.00150100       0.00035900
Si       0.66901000       2.81462000       4.93628000      -0.00062900       0.00160700      -0.00001800
Si       7.35650000       9.50477000      11.62455000      -0.00001100       0.00071800      -0.00099400
Si       4.76786000       0.74576000       2.90508000       0.00151700       0.00080300      -0.00082000
Si      11.45537000       7.43589000       9.59339000       0.00012800       0.00071800      -0.00098200
Si       5.87639000       3.88711000      11.62647000      -0.00042900      -0.00203800       0.00107000
Si      12.56348000      10.57828000       4.93752000      -0.00057400      -0.00158500       0.00180800
Si       1.77607000       7.43735000       3.98040000      -0.00034600      -0.00009600       0.00067600
Si       8.46548000       0.74427000      10.66977000      -0.00027100      -0.00122300      -0.00096200
Si       7.35465000       3.88790000       1.94870000       0.00006700       0.00019400       0.00031200
Si       0.66566000      10.57993000       8.63659000      -0.00069300      -0.00046600      -0.00079100
Si       8.46434000      12.64772000       2.90377000      -0.00054900       0.00055100       0.00093500
Si       1.77724000       5.95650000       9.59276000      -0.00120100       0.00014900       0.00022700
Si      12.56499000       2.81319000       8.63653000      -0.00073700       0.00073000      -0.00078200
Si       5.87557000       9.50629000       1.94715000      -0.00083600       0.00096000      -0.00065700
Si      11.45492000       5.95599000       3.98050000       0.00025100      -0.00149300       0.00046900
Si       4.76589000      12.64804000      10.66839000       0.00060400      -0.00118900      -0.00014700
O        3.24785000       1.01920000       3.41801000       0.00076800       0.00066900       0.00076600
O        9.93533000       7.70931000      10.10631000       0.00069800       0.00079900       0.00095900
O        3.29728000       5.68285000      10.10580000       0.00013700      -0.00075800       0.00170200
O        9.98439000      12.37403000       3.41685000      -0.00095400      -0.00077100       0.00038900
O        9.93443000       5.68386000       3.46845000       0.00112900      -0.00112800      -0.00071100
O        3.24540000      12.37596000      10.15631000       0.00142200      -0.00135500      -0.00018800
O        3.29633000       7.70869000       3.46736000       0.00016000       0.00044100      -0.00203000
O        9.98576000       1.01558000      10.15672000      -0.00093200       0.00056500      -0.00075500
O        3.24518000       3.32826000       1.11113000      -0.00068300       0.00243300       0.00060000
O        9.93268000      10.01838000       7.79942000      -0.00085900       0.00255000       0.00059900
O        0.94222000       3.32863000       3.41651000       0.00080200       0.00089100       0.00023000
O        7.62970000      10.01877000      10.10477000       0.00073700       0.00071000       0.00053500
O        3.29854000       3.37488000       7.80066000      -0.00132800      -0.00042900       0.00083400
O        9.98563000      10.06608000       1.11170000      -0.00162600       0.00001500       0.00092000
O        5.59993000      10.01952000       3.46681000      -0.00056700       0.00091300      -0.00093600
O       12.28935000       3.32642000      10.15618000      -0.00061900       0.00050600      -0.00107600
O        9.93659000       3.37318000       5.77386000       0.00037700      -0.00185400      -0.00072000
O        3.24755000      10.06525000      12.46173000       0.00025700      -0.00190900      -0.00074600
O        5.60303000       3.37402000      10.10645000      -0.00052700      -0.00085000       0.00107500
O       12.29014000      10.06519000       3.41751000      -0.00064800      -0.00127600       0.00028400
O        3.29585000      10.01960000       5.77572000      -0.00070300       0.00135400      -0.00060200
O        9.98528000       3.32651000      12.46511000      -0.00177100       0.00029700      -0.00062000
O        7.62988000       3.37421000       3.46834000       0.00065000      -0.00105700      -0.00078500
O        0.94088000      10.06624000      10.15621000       0.00074100      -0.00135500      -0.00010600
O        4.93380000       1.29296000       1.38307000       0.00000700      -0.00016500       0.00227900
O       11.62129000       7.98308000       8.07139000       0.00013100       0.00037400       0.00173400
O        8.29815000      12.10184000       1.38125000      -0.00038200      -0.00054500       0.00008700
O        1.61105000       5.41061000       8.07025000      -0.00009100      -0.00108000       0.00000800
O        8.30013000       1.29011000      12.19221000      -0.00015400       0.00094000      -0.00035200
O        1.61072000       7.98321000       5.50286000      -0.00012500       0.00118000      -0.00069300
O       11.62187000       5.41012000       5.50295000       0.00033800      -0.00022200      -0.00085200
O        4.93283000      12.10219000      12.19083000       0.00036300       0.00005100      -0.00092100
O        1.21235000       1.29128000       5.10267000       0.00191400      -0.00042100      -0.00008300
O        7.89983000       7.98141000      11.79093000       0.00113100       0.00026100       0.00013600
O        1.21168000       5.01852000       1.38351000       0.00169900      -0.00002000      -0.00085600
O        7.89914000      11.70863000       8.07176000       0.00143000       0.00004900      -0.00027100
O        5.33168000       5.40982000      11.79350000      -0.00148100      -0.00026500      -0.00017900
O       12.01876000      12.10098000       5.10455000      -0.00177100      -0.00013600      -0.00050700
O        1.21391000       8.37680000      12.18971000       0.00071900      -0.00035200      -0.00018200
O        7.90292000       1.68476000       5.50183000       0.00098500      -0.00030200      -0.00012500
O       12.02065000       1.29021000       8.46936000      -0.00086700       0.00026600      -0.00029500
O        5.33124000       7.98333000       1.77998000      -0.00101500       0.00001000      -0.00031500
O       12.01876000       8.37649000       1.38395000      -0.00025400      -0.00004000       0.00114700
O        5.33168000       1.68531000       8.07288000      -0.00024000      -0.00004500       0.00155800
O        1.21080000      12.10249000       8.46904000       0.00138800      -0.00074000      -0.00019200
O        7.89981000       5.41048000       1.78118000       0.00055800      -0.00161700      -0.00033600
O        5.32896000      11.70871000       5.50017000      -0.00038800       0.00019400      -0.00096300
O       12.01835000       5.01561000      12.18955000      -0.00026200       0.00017200      -0.00117400
O        3.76184000       1.52283000       5.94294000      -0.00030100      -0.00062400      -0.00040400
O       10.44929000       8.21290000      12.63125000       0.00040900       0.00021200       0.00147900
O        2.78085000       5.17634000      12.62898000      -0.00078000       0.00024800      -0.00001000
O        9.46792000      11.86751000       5.94002000      -0.00073000       0.00032600      -0.00038500
O        3.76023000      11.87134000       7.63193000       0.00137300       0.00018800      -0.00207800
O       10.44924000       5.17936000       0.94404000       0.00110600       0.00078000      -0.00067400
O        2.78183000       8.21811000       0.94441000      -0.00071200      -0.00004300      -0.00075100
O        9.47124000       1.52499000       7.63378000      -0.00066200       0.00000700      -0.00058800
O        5.76844000       3.84221000       1.62124000       0.00118800       0.00090900       0.00039900
O       12.45596000      10.53232000       8.30953000       0.00174800       0.00123800       0.00073700
O        1.44502000       5.85193000       3.93520000      -0.00045800       0.00010000       0.00001600
O        8.13249000      12.54205000      10.62343000       0.00030600       0.00213400       0.00103000
O        0.77461000       2.86185000       8.30894000      -0.00078100      -0.00064200       0.00006600
O        7.46170000       9.55308000       1.61997000      -0.00037500      -0.00038400      -0.00014800
O        5.09426000      12.54301000       2.94933000      -0.00020700       0.00142700      -0.00088400
O       11.78372000       5.84994000       9.63870000       0.00012100       0.00053900      -0.00052000
O       12.45973000       2.86065000       5.26517000       0.00099900      -0.00064100      -0.00011800
O        5.77070000       9.55271000      11.95305000       0.00048600      -0.00034100       0.00015300
O       11.78493000       7.54156000       3.93462000       0.00052300       0.00017700       0.00024000
O        5.09786000       0.85040000      10.62355000       0.00018100      -0.00062500       0.00076400
O        7.46221000       3.83920000      11.95476000      -0.00091100       0.00082200      -0.00001100
O        0.77278000      10.53231000       5.26540000      -0.00058600       0.00091900       0.00003800
O        8.13816000       0.85048000       2.95178000       0.00022900      -0.00168900      -0.00086300
O        1.44910000       7.54246000       9.63968000      -0.00004400      -0.00062600      -0.00040500
O        5.09605000       2.86159000      12.63093000       0.00055300       0.00004300       0.00013600
O       11.78315000       9.55277000       5.94199000       0.00056800       0.00007800      -0.00000800
O        1.45011000       3.83889000       5.94133000      -0.00016800       0.00061500       0.00100200
O        8.13763000      10.52902000      12.62957000       0.00047900       0.00118500       0.00196300
O        8.13301000       2.86078000       0.94453000       0.00040200      -0.00101600      -0.00188300
O        1.44399000       9.55279000       7.63239000       0.00035500      -0.00067500      -0.00128900
O       11.78663000       3.83998000       7.63192000       0.00038700       0.00009700       0.00007000
O        5.09721000      10.53310000       0.94255000       0.00038900       0.00019800       0.00013800
O        2.77833000      12.54242000       5.26571000      -0.00095600       0.00168500      -0.00041200
O        9.46771000       5.84931000      11.95505000      -0.00063400       0.00090200       0.00003200
O       12.45745000       5.17511000       2.95323000       0.00074400      -0.00019400      -0.00022800
O        5.76841000      11.86713000       9.64111000      -0.00016700       0.00022800       0.00019900
O        3.76415000       7.54098000      11.95724000       0.00145100      -0.00223900      -0.00017200
O       10.45315000       0.84892000       5.26936000       0.00137800      -0.00170400      -0.00001300
O        5.77197000       1.52359000       3.93312000      -0.00018100      -0.00018800       0.00044500
O       12.45943000       8.21375000      10.62143000       0.00139800       0.00042300       0.00109000
O        3.76210000       5.85160000       1.61686000       0.00028100       0.00001000      -0.00122400
O       10.44956000      12.54170000       8.30513000       0.00074700       0.00115000      -0.00070600
O        0.77325000       8.21751000       2.95307000      -0.00256700       0.00040400      -0.00146300
O        7.46266000       1.52446000       9.64243000      -0.00091100      -0.00024500      -0.00075900
O        2.78087000       0.85237000       8.30965000      -0.00029600      -0.00001600       0.00043700
O        9.46795000       7.54357000       1.62078000      -0.00002100       0.00056800       0.00015700
O        7.45969000      11.86889000       3.93060000      -0.00056000       0.00025800       0.00022800
O        0.77260000       5.17766000      10.61959000      -0.00062200       0.00016100       0.00044600
