144
Lattice="13.179372985 0.002908398 -0.00415111 0.002913734 13.177317437 0.000672665 -0.004152821 0.000677992 13.181588747" Properties=species:S:1:pos:R:3:forces:R:3 stress="-0.011250563618260484 1.8162791556320278e-06 2.7275394880109837e-06 1.8162791556320278e-06 -0.011249527527745587 -9.986414601413214e-07 2.7275394880109837e-06 -9.986414601413214e-07 -0.01122706433640153" free_energy=-964.09508196 energy=-964.09508196 pbc="T T T"
Si       2.70010000       0.62795000       4.73736000       0.00059700       0.00161200      -0.00101300
Si       9.28914000       7.21839000      11.32640000       0.00109800       0.00119300      -0.00071900
Si       3.83604000       5.85797000      11.33059000      -0.00090800      -0.00023600       0.00049400
Si      10.42926000      12.44779000       4.73798000      -0.00062400      -0.00213600      -0.00071900
Si       2.70199000      12.44413000       8.44939000       0.00028200      -0.00036900      -0.00015000
Si       9.29228000       5.85658000       1.85620000       0.00026700      -0.00070800      -0.00030000
Si       3.84048000       7.21722000       1.86113000      -0.00108300       0.00052300       0.00068200
Si      10.42665000       0.63035000       8.44949000       0.00005000      -0.00046400       0.00110100
Si       4.71090000       2.67177000       0.68254000       0.00047800       0.00018700       0.00005500
Si      11.29998000       9.26225000       7.27157000       0.00047300       0.00056400       0.00004600
Si       0.65699000       4.67941000       2.73157000       0.00142700       0.00111300       0.00003800
Si       7.24604000      11.26985000       9.32056000       0.00131600       0.00136900      -0.00004300
Si       1.82881000       3.81051000       7.27674000      -0.00128400      -0.00186300      -0.00033400
Si       8.42203000      10.40026000       0.68413000      -0.00062400      -0.00067100       0.00101600
Si       5.88463000      11.26836000       3.86849000       0.00000800       0.00104000      -0.00073200
Si      12.47077000       4.68155000      10.45685000      -0.00121300       0.00016900      -0.00006600
Si      11.29871000       3.81389000       5.90963000       0.00210700      -0.00024800       0.00100200
Si       4.70843000      10.40144000      12.50281000       0.00029000      -0.00029100       0.00060600
Si      12.47516000       8.39537000       2.72652000      -0.00087400      -0.00078600      -0.00039400
Si       5.88197000       1.80562000       9.31903000      -0.00103700      -0.00064200      -0.00031400
Si       8.41891000       2.67320000      12.50280000      -0.00098800       0.00004900      -0.00026600
Si       1.83278000       9.26009000       5.91440000      -0.00127100       0.00012200      -0.00015000
Si       7.24350000       1.80573000       3.86705000       0.00009200      -0.00087400      -0.00147600
Si       0.65319000       8.39330000      10.46024000       0.00084200      -0.00036100       0.00060900
Si       2.70178000       4.68126000       0.68503000       0.00112400       0.00048700       0.00125200
Si       9.29084000      11.27170000       7.27403000       0.00142800       0.00101700       0.00074300
Si       3.83908000       1.80476000       7.27293000      -0.00119700      -0.00064600      -0.00044800
Si      10.43228000       8.39448000       0.68041000      -0.00080900      -0.00029500      -0.00022000
Si       2.69831000       8.39448000      12.50650000      -0.00041200      -0.00028400       0.00004000
Si       9.28862000       1.80694000       5.91325000       0.00073500      -0.00105700       0.00029900
Si       3.84151000      11.26751000       5.91370000      -0.00099300       0.00059500       0.00018700
Si      10.42760000       4.68065000      12.50206000      -0.00093900       0.00029600      -0.00026900
Si       0.65416000       2.67095000       4.73909000       0.00105500       0.00056700      -0.00013000
Si       7.24323000       9.26140000      11.32810000       0.00065000       0.00124900       0.00043400
Si       4.70660000       0.62861000       2.72911000       0.00027100       0.00208300      -0.00057500
Si      11.29567000       7.21911000       9.31815000       0.00083100       0.00192800       0.00003800
Si       5.88221000       3.81215000      11.32876000      -0.00028000      -0.00156600      -0.00036300
Si      12.47547000      10.40197000       4.73618000      -0.00110300      -0.00100900      -0.00069700
Si       1.83285000       7.21541000       3.87036000      -0.00055100       0.00100100      -0.00018500
Si       8.41901000       0.62854000      10.45871000      -0.00062000       0.00168200       0.00061100
Si       7.24775000       3.81233000       1.85707000       0.00023100      -0.00146200      -0.00045100
Si       0.65745000      10.39989000       8.45025000       0.00030200      -0.00069400      -0.00070600
Si       8.42104000      12.44578000       2.72894000      -0.00035100      -0.00149100      -0.00046900
Si       1.82784000       5.85602000       9.32153000      -0.00145100      -0.00064200       0.00006400
Si      12.47426000       2.67382000       8.44718000      -0.00054200       0.00032900       0.00063100
Si       5.88812000       9.26068000       1.85877000      -0.00073600       0.00044200       0.00024700
Si      11.29889000       5.85865000       3.86479000       0.00122100      -0.00050100      -0.00001900
Si       4.70861000      12.44618000      10.45796000       0.00076500      -0.00028300       0.00024000
O        3.16996000       0.88828000       3.20046000       0.00024300       0.00064500       0.00065800
O        9.75902000       7.47873000       9.78950000       0.00018200       0.00082900       0.00081700
O        3.36436000       5.59884000       9.79414000      -0.00027800      -0.00072100       0.00145400
O        9.95759000      12.18859000       3.20151000      -0.00003300      -0.00052500       0.00158100
O        9.76261000       5.59795000       3.39313000       0.00087000      -0.00122600      -0.00232700
O        3.17231000      12.18553000       9.98634000       0.00112200      -0.00117100      -0.00234100
O        3.36929000       7.47509000       3.39828000      -0.00023000       0.00122600      -0.00077000
O        9.95544000       0.88821000       9.98663000      -0.00032100       0.00101300      -0.00087200
O        3.17453000       3.14466000       0.94075000       0.00131700       0.00097600       0.00125000
O        9.76360000       9.73511000       7.52974000       0.00119400       0.00051600       0.00076500
O        0.91555000       3.14286000       3.20312000       0.00013800       0.00059700       0.00114500
O        7.50460000       9.73331000       9.79213000       0.00034400       0.00064000       0.00112800
O        3.36611000       3.34039000       7.53384000      -0.00089100      -0.00074200       0.00085500
O        9.95933000       9.93013000       0.94127000      -0.00091900      -0.00110400       0.00081200
O        5.62639000       9.73239000       3.39483000      -0.00088900       0.00056900      -0.00063100
O       12.21249000       3.14557000       9.98321000      -0.00074300       0.00066100      -0.00039400
O        9.76124000       3.34321000       5.65451000       0.00003300      -0.00106300      -0.00024900
O        3.17094000       9.93074000      12.24772000       0.00108100      -0.00020600      -0.00016400
O        5.62310000       3.34180000       9.79181000      -0.00075700       0.00022100       0.00080400
O       12.21635000       9.93157000       3.19924000      -0.00078000       0.00017100       0.00096100
O        3.36898000       9.73147000       5.65336000      -0.00041000       0.00075500      -0.00101400
O        9.95511000       3.14459000      12.24174000      -0.00022300       0.00095500      -0.00104800
O        7.50507000       3.34139000       3.39410000       0.00104500      -0.00035600      -0.00102700
O        0.91478000       9.92897000       9.98731000       0.00097900       0.00002500      -0.00179600
O        4.90203000       1.14065000       1.19754000       0.00029100       0.00020700       0.00135700
O       11.49110000       7.73113000       7.78657000       0.00031800       0.00034200       0.00123100
O        8.22825000      11.93152000       1.19780000      -0.00065000      -0.00118600       0.00175500
O        1.63503000       5.34175000       7.79038000      -0.00036600      -0.00049200       0.00236800
O        8.22537000       1.14169000      11.99014000      -0.00043400       0.00026800      -0.00096900
O        1.63923000       7.72856000       5.40177000      -0.00047700       0.00102400      -0.00029900
O       11.49222000       5.34532000       5.39619000       0.00025000      -0.00059200      -0.00143200
O        4.90198000      11.93286000      11.98936000       0.00005000      -0.00057800      -0.00142300
O        1.16844000       1.13992000       4.93332000       0.00139000       0.00085400      -0.00082900
O        7.75749000       7.73037000      11.52233000       0.00130700       0.00110900      -0.00085700
O        1.17111000       4.87291000       1.20080000       0.00034900       0.00055400       0.00131900
O        7.76018000      11.46339000       7.78980000       0.00011600       0.00032700       0.00173000
O        5.36656000       5.34249000      11.52474000      -0.00071800       0.00001800      -0.00061200
O       11.95980000      11.93231000       4.93206000      -0.00044200      -0.00033200      -0.00005900
O        1.16716000       8.20228000      11.99166000       0.00068800      -0.00026100      -0.00093800
O        7.75747000       1.61471000       5.39844000       0.00120600      -0.00013600      -0.00024100
O       11.95785000       1.14345000       8.25368000      -0.00098400       0.00031100       0.00027700
O        5.37166000       7.73032000       1.66527000      -0.00036600       0.00085200       0.00040200
O       11.96360000       8.20258000       1.19445000      -0.00085400      -0.00052800       0.00100000
O        5.37039000       1.61289000       7.78696000      -0.00059000       0.00004200       0.00084200
O        1.17042000      11.93135000       8.25547000       0.00072300      -0.00041600      -0.00026400
O        7.76071000       5.34377000       1.66227000       0.00085700      -0.00013000      -0.00011300
O        5.37304000      11.45980000       5.40061000      -0.00072600      -0.00006900      -0.00065300
O       11.95910000       4.87298000      11.98896000      -0.00030200       0.00033700      -0.00071400
O        3.73052000       1.45254000       5.69879000       0.00036700       0.00090900       0.00058400
O       10.31958000       8.04290000      12.28788000       0.00011100       0.00095200       0.00012500
O        2.80260000       5.03856000      12.29318000       0.00021500       0.00064600       0.00089800
O        9.39584000      11.62838000       5.70060000      -0.00002700       0.00038600       0.00133600
O        3.73209000      11.61938000       7.48780000       0.00033000      -0.00106000      -0.00146600
O       10.32238000       5.03185000       0.89457000       0.00023300      -0.00100800      -0.00119800
O        2.80915000       8.04122000       0.89950000      -0.00048600      -0.00073900      -0.00100100
O        9.39539000       1.45436000       7.48785000      -0.00135000      -0.00025900      -0.00211800
O        5.67366000       3.70338000       1.50415000       0.00122700       0.00053700      -0.00048300
O       12.26273000      10.29386000       8.09321000       0.00089400       0.00028100      -0.00073300
O        1.48092000       5.64105000       3.76242000       0.00019100      -0.00020500       0.00030500
O        8.06993000      12.23153000      10.35142000      -0.00026500      -0.00050200       0.00019000
O        0.86973000       2.77731000       8.10111000      -0.00018600      -0.00088300       0.00040200
O        7.46294000       9.36706000       1.50849000      -0.00053000      -0.00108300       0.00069500
O        5.06036000      12.23143000       2.83939000       0.00092500      -0.00037700       0.00036200
O       11.64654000       5.64460000       9.42773000       0.00073400      -0.00003500       0.00022900
O       12.25852000       2.78211000       5.08426000      -0.00057600      -0.00020000       0.00038200
O        5.66820000       9.36967000      11.67742000       0.00059900      -0.00071400       0.00012600
O       11.65064000       7.43274000       3.75595000      -0.00008300      -0.00021400       0.00034800
O        5.05749000       0.84295000      10.34845000      -0.00010200      -0.00041400       0.00021700
O        7.45661000       3.70511000      11.68070000      -0.00093100       0.00124600      -0.00062100
O        0.87049000      10.29201000       5.09227000      -0.00018300       0.00085800      -0.00024400
O        8.06525000       0.84230000       2.83631000      -0.00091000       0.00032100       0.00018000
O        1.47493000       7.42988000       9.42953000      -0.00002600      -0.00155200      -0.00069700
O        5.06120000       2.77851000      12.29020000       0.00004300      -0.00025900      -0.00008400
O       11.65448000       9.36836000       5.69765000       0.00000700      -0.00045000       0.00064900
O        1.47418000       3.70265000       5.70306000      -0.00014800       0.00036800       0.00172500
O        8.06329000      10.29311000      12.29206000      -0.00075100      -0.00014800       0.00056000
O        8.07156000       2.78101000       0.89562000       0.00048200       0.00001800      -0.00076700
O        1.48126000       9.36859000       7.48881000       0.00079400      -0.00030500      -0.00151100
O       11.65610000       3.70658000       7.48279000      -0.00041000       0.00076900      -0.00164400
O        5.06996000      10.29347000       0.89438000       0.00002600       0.00039000      -0.00073900
O        2.81252000      12.23103000       5.08977000       0.00021500      -0.00050400       0.00072400
O        9.39860000       5.64414000      11.67813000      -0.00014100      -0.00011800       0.00044100
O       12.26249000       5.03629000       2.83479000       0.00035300       0.00138700      -0.00069000
O        5.67215000      11.62378000       9.42794000       0.00071000       0.00143400      -0.00078500
O        3.72936000       7.43212000      11.68361000       0.00093700      -0.00110300      -0.00070700
O       10.31969000       0.84458000       5.09031000      -0.00023100       0.00101500       0.00032400
O        5.66902000       1.45344000       3.75866000       0.00074500       0.00050200       0.00054500
O       12.25810000       8.04394000      10.34772000      -0.00059300      -0.00002300      -0.00006800
O        3.73273000       5.64305000       1.50839000       0.00094400      -0.00044600       0.00126500
O       10.32180000      12.23348000       8.09738000       0.00098000       0.00049600       0.00174100
O        0.86943000       8.03879000       2.84093000      -0.00080100      -0.00025000      -0.00043800
O        7.45563000       1.45199000       9.42928000      -0.00054100      -0.00000100      -0.00068200
O        2.80949000       0.84034000       8.09504000      -0.00067900      -0.00125900      -0.00083700
O        9.40268000       7.43010000       1.50255000      -0.00095200      -0.00120800      -0.00065900
O        7.45809000      11.62296000       3.75908000      -0.00168600      -0.00102200       0.00130200
O        0.86483000       5.03320000      10.35165000      -0.00023300      -0.00042400       0.00081000
