144
Lattice="13.165126854 -0.000844754 0.001183315 -0.000844923 13.158694708 -0.000748228 0.001181064 -0.00074889 13.156315846" Properties=species:S:1:pos:R:3:forces:R:3 stress="-0.011863535988004352 5.367697848259602e-06 -4.169328096090017e-06 5.367697848259602e-06 -0.011859903429693088 -6.821969474590401e-06 -4.169328096090017e-06 -6.821969474590401e-06 -0.011864066516280053" free_energy=-963.97020611 energy=-963.97020611 pbc="T T T"
Si       2.63512000       0.64928000       4.72476000       0.00019500       0.00036200      -0.00205100
Si       9.21782000       7.22785000      11.30313000      -0.00048900       0.00059600      -0.00149300
Si       3.77965000       5.87696000      11.30300000      -0.00069100       0.00070100      -0.00002100
Si      10.36121000      12.45626000       4.72505000      -0.00055800       0.00132000      -0.00042100
Si       2.63448000      12.45776000       8.43741000       0.00029800      -0.00060700      -0.00061900
Si       9.21689000       5.87840000       1.86026000       0.00052500      -0.00036100      -0.00042800
Si       3.77864000       7.22971000       1.85858000       0.00240800       0.00083200       0.00028900
Si      10.36223000       0.64954000       8.43770000       0.00207300       0.00085700      -0.00002700
Si       4.64187000       2.69243000       0.67875000      -0.00014100      -0.00159700       0.00160200
Si      11.22460000       9.27095000       7.25713000       0.00022800      -0.00083400       0.00078600
Si       0.59036000       4.69585000       2.71862000       0.00062400      -0.00145600       0.00011500
Si       7.17307000      11.27443000       9.29696000       0.00102400      -0.00138000       0.00036000
Si       1.77334000       3.83541000       7.25491000      -0.00129800       0.00012000       0.00077600
Si       8.35487000      10.41473000       0.67695000      -0.00133500       0.00074100       0.00149300
Si       5.82368000      11.27581000       3.86470000      -0.00115200      -0.00026200       0.00014900
Si      12.40727000       4.69565000      10.44385000      -0.00139800      -0.00071700       0.00049700
Si      11.22440000       3.83471000       5.90743000      -0.00063400      -0.00100000      -0.00052700
Si       4.64193000      10.41408000      12.48457000       0.00085600      -0.00015400       0.00013200
Si      12.40610000       8.40820000       2.71923000      -0.00018600       0.00009200      -0.00042300
Si       5.82454000       1.82890000       9.29718000      -0.00020300      -0.00036600      -0.00082100
Si       8.35478000       2.69093000      12.48463000       0.00077400       0.00025500       0.00068400
Si       1.77119000       9.27106000       5.90550000       0.00065000       0.00081200       0.00061500
Si       7.17362000       1.82965000       3.86629000      -0.00083500      -0.00195700      -0.00032400
Si       0.59120000       8.40903000      10.44349000      -0.00075700      -0.00119200      -0.00059100
Si       2.63445000       4.69599000       0.67775000       0.00038400       0.00034500       0.00130600
Si       9.21720000      11.27453000       7.25612000       0.00018600       0.00095400       0.00062100
Si       3.78020000       1.83070000       7.25692000      -0.00084800      -0.00122900      -0.00117900
Si      10.36174000       8.41002000       0.67897000      -0.00041900      -0.00071500      -0.00042000
Si       2.63485000       8.40992000      12.48426000       0.00053100      -0.00011700       0.00005900
Si       9.21728000       1.83055000       5.90706000       0.00057800      -0.00057800      -0.00024600
Si       3.77867000      11.27564000       5.90483000       0.00059100       0.00067000      -0.00100400
Si      10.36227000       4.69554000      12.48403000       0.00076900      -0.00020300      -0.00079100
Si       0.59164000       2.69032000       4.72465000       0.00022000      -0.00120300      -0.00042200
Si       7.17431000       9.26889000      11.30299000       0.00023200      -0.00027900      -0.00041500
Si       4.64317000       0.64889000       2.72132000      -0.00065500      -0.00025400      -0.00016700
Si      11.22589000       7.22744000       9.29974000      -0.00000900      -0.00070900       0.00022600
Si       5.82321000       3.83560000      11.30306000       0.00045900      -0.00005700       0.00029800
Si      12.40477000      10.41489000       4.72512000       0.00060000       0.00051100      -0.00018500
Si       1.77174000       7.22734000       3.86298000       0.00074300      -0.00011300       0.00004800
Si       8.35532000       0.64719000      10.44211000       0.00088500      -0.00027200       0.00027200
Si       7.17323000       3.83692000       1.86034000       0.00004700      -0.00151800      -0.00002700
Si       0.59082000      10.41630000       8.43753000       0.00059200      -0.00092500      -0.00008100
Si       8.35462000      12.45691000       2.71969000      -0.00015700      -0.00119300       0.00175300
Si       1.77307000       5.87760000       9.29764000      -0.00060200      -0.00107600       0.00185500
Si      12.40583000       2.69062000       8.43778000      -0.00263200       0.00087000       0.00160500
Si       5.82224000       9.27079000       1.85864000      -0.00255400       0.00029000       0.00153600
Si      11.22433000       5.87663000       3.86427000       0.00058000      -0.00161900      -0.00047600
Si       4.64191000      12.45603000      10.44143000       0.00054400      -0.00197700      -0.00057400
O        3.10493000       0.90739000       3.18739000      -0.00048200       0.00184400       0.00083300
O        9.68764000       7.48591000       9.76577000      -0.00036900       0.00197700       0.00080800
O        3.31117000       5.62012000       9.76504000      -0.00000400      -0.00044100       0.00084200
O        9.89273000      12.19943000       3.18710000      -0.00005600      -0.00050600       0.00080100
O        9.68622000       5.61869000       3.39749000       0.00003100      -0.00066000      -0.00084300
O        3.10381000      12.19805000       9.97464000       0.00025600      -0.00062200      -0.00057800
O        3.30997000       7.48526000       3.39663000      -0.00070300       0.00054100      -0.00026800
O        9.89354000       0.90510000       9.97575000      -0.00059200       0.00061100      -0.00027200
O        3.10393000       3.15907000       0.93891000      -0.00034100       0.00070600      -0.00035600
O        9.68666000       9.73762000       7.51726000      -0.00014200       0.00030600      -0.00025500
O        0.84705000       3.15768000       3.18628000       0.00249100       0.00075900       0.00136000
O        7.42974000       9.73626000       9.76462000       0.00260700       0.00071200       0.00140200
O        3.31088000       3.36795000       7.51553000      -0.00076300       0.00065000       0.00108100
O        9.89241000       9.94728000       0.93756000      -0.00044200       0.00018700       0.00098000
O        5.56667000       9.73771000       3.39712000      -0.00307200       0.00051400      -0.00086500
O       12.15028000       3.15754000       9.97627000      -0.00305600       0.00051700      -0.00106400
O        9.68708000       3.36738000       5.64578000       0.00000200      -0.00083400      -0.00095500
O        3.10464000       9.94677000      12.22295000      -0.00084600      -0.00168500      -0.00096400
O        5.56795000       3.36701000       9.76488000      -0.00037900      -0.00037500       0.00010500
O       12.14950000       9.94631000       3.18694000      -0.00035900      -0.00054000      -0.00001400
O        3.30940000       9.73804000       5.64691000      -0.00107500       0.00063300       0.00131800
O        9.89298000       3.15793000      12.22607000      -0.00087100       0.00104800       0.00128200
O        7.43002000       3.36750000       3.39786000       0.00031000      -0.00043600      -0.00066200
O        0.84763000       9.94689000       9.97505000       0.00026200      -0.00092800      -0.00030100
O        4.83982000       1.16084000       1.18996000      -0.00013400       0.00109400      -0.00059800
O       11.42255000       7.73937000       7.76837000      -0.00019100       0.00091300      -0.00022000
O        8.15776000      11.94646000       1.18788000       0.00085300      -0.00049300      -0.00131800
O        1.57620000       5.36714000       7.76582000       0.00089600      -0.00020100      -0.00109000
O        8.15758000       1.15929000      11.97318000      -0.00065700      -0.00009200      -0.00197400
O        1.57398000       7.73942000       5.39405000      -0.00060800      -0.00027700      -0.00197300
O       11.42236000       5.36609000       5.39601000       0.00012700       0.00010200      -0.00122900
O        4.83994000      11.94546000      11.97316000       0.00001300      -0.00012800      -0.00104600
O        1.10266000       1.15848000       4.92009000      -0.00113200       0.00104800       0.00121300
O        7.68534000       7.73709000      11.49842000      -0.00019700       0.00023500       0.00113400
O        1.10202000       4.89202000       1.18702000       0.00150900       0.00114900       0.00059800
O        7.68476000      11.47058000       7.76538000       0.00167600       0.00110600       0.00051200
O        5.31216000       5.36754000      11.49836000       0.00044700      -0.00081300      -0.00078200
O       11.89372000      11.94684000       4.92042000       0.00063100      -0.00096100      -0.00071300
O        1.10234000       8.21458000      11.97546000       0.00053100      -0.00175200      -0.00014100
O        7.68476000       1.63521000       5.39826000       0.00012000      -0.00175000      -0.00049800
O       11.89459000       1.15884000       8.24189000      -0.00026400       0.00032000       0.00012700
O        5.31101000       7.73899000       1.66276000      -0.00023000       0.00039500       0.00012800
O       11.89432000       8.21394000       1.18745000      -0.00051800       0.00061000       0.00021900
O        5.31278000       1.63462000       7.76539000      -0.00007200       0.00062400       0.00072100
O        1.10201000      11.94815000       8.24282000       0.00025600      -0.00147700      -0.00090300
O        7.68443000       5.36877000       1.66566000       0.00021300      -0.00133700      -0.00096400
O        5.31137000      11.47159000       5.39606000       0.00029900       0.00012500       0.00054000
O       11.89496000       4.89143000      11.97522000       0.00054700       0.00013200       0.00055500
O        3.66506000       1.47660000       5.68406000       0.00012400       0.00116600       0.00223900
O       10.24777000       8.05516000      12.26244000      -0.00002900       0.00110700       0.00175300
O        2.74971000       5.04766000      12.26074000       0.00047700       0.00186800       0.00057600
O        9.33128000      11.62698000       5.68279000       0.00007500       0.00137700       0.00148400
O        3.66426000      11.63095000       7.47749000       0.00015800       0.00240200       0.00111600
O       10.24669000       5.05157000       0.90037000       0.00012800       0.00245500       0.00098600
O        2.74831000       8.05899000       0.90134000      -0.00032000      -0.00104100      -0.00213600
O        9.33189000       1.47882000       7.48045000      -0.00002100      -0.00131600      -0.00130400
O        5.60058000       3.72470000       1.50394000      -0.00073200      -0.00012300       0.00072300
O       12.18331000      10.30323000       8.08233000      -0.00134100      -0.00046300       0.00049600
O        1.41724000       5.65416000       3.74987000       0.00018000       0.00146100       0.00102600
O        7.99996000      12.23272000      10.32824000       0.00011000       0.00136600       0.00098500
O        0.81331000       2.80449000       8.08026000       0.00202800       0.00258700       0.00034800
O        7.39486000       9.38382000       1.50235000       0.00194900       0.00243000       0.00030600
O        4.99687000      12.23442000       2.83358000      -0.00022600       0.00028000       0.00040300
O       11.58044000       5.65426000       9.41275000      -0.00047600       0.00091900       0.00011600
O       12.18465000       2.80289000       5.08344000      -0.00015800       0.00054300      -0.00126500
O        5.60219000       9.38228000      11.66055000      -0.00036300       0.00064600      -0.00104600
O       11.57833000       7.44948000       3.74939000       0.00129000      -0.00048800      -0.00132900
O        4.99676000       0.87018000      10.32733000       0.00125300       0.00016500      -0.00127400
O        7.39595000       3.72257000      11.65898000      -0.00128400       0.00122800      -0.00069400
O        0.81238000      10.30272000       5.07984000      -0.00102500       0.00096600      -0.00044000
O        7.99975000       0.87074000       2.83512000      -0.00085600      -0.00080100       0.00065600
O        1.41732000       7.45014000       9.41232000      -0.00070300      -0.00131100       0.00051500
O        4.99439000       2.80519000      12.26118000       0.00091500       0.00032500      -0.00081400
O       11.57597000       9.38448000       5.68324000       0.00031900      -0.00022100       0.00039300
O        1.42076000       3.72109000       5.68162000       0.00039600       0.00018900       0.00304200
O        8.00342000      10.29965000      12.26001000       0.00020100       0.00000700       0.00229200
O        7.99867000       2.80519000       0.90127000      -0.00287200      -0.00206700      -0.00004100
O        1.41627000       9.38458000       7.47846000      -0.00277800      -0.00226100      -0.00023600
O       11.57684000       3.72143000       7.48086000      -0.00017400       0.00010200      -0.00161800
O        4.99325000      10.30156000       0.90169000      -0.00055300       0.00028200      -0.00234000
O        2.74826000      12.23487000       5.07792000       0.00054600       0.00076800      -0.00050200
O        9.33187000       5.65476000      11.65713000       0.00036300       0.00156300      -0.00054800
O       12.18277000       5.05058000       2.83233000       0.00013900      -0.00097800       0.00080100
O        5.60037000      11.63003000       9.40945000      -0.00013000      -0.00093800       0.00101500
O        3.66481000       7.44935000      11.65871000       0.00105100       0.00000300      -0.00127900
O       10.24723000       0.86998000       5.08150000       0.00112700      -0.00025700      -0.00132300
O        5.60089000       1.47433000       3.75427000       0.00118000       0.00070700       0.00062800
O       12.18360000       8.05290000      10.33269000       0.00073000       0.00046100       0.00061500
O        3.66454000       5.65723000       1.50250000       0.00100300      -0.00074200       0.00046700
O       10.24729000      12.23576000       8.08088000       0.00093400      -0.00090600       0.00044800
O        0.81366000       8.05316000       2.83074000       0.00028000       0.00006200      -0.00116300
O        7.39724000       1.47303000       9.40987000      -0.00003000       0.00022400      -0.00125800
O        2.74979000       0.87207000       8.08466000      -0.00090600       0.00110700       0.00008500
O        9.33134000       7.45141000       1.50674000      -0.00102900       0.00062700       0.00012600
O        7.39661000      11.63076000       3.75194000       0.00099700      -0.00135900      -0.00091700
O        0.81505000       5.05145000      10.32990000       0.00148500      -0.00108100      -0.00117000
