144
Lattice="13.462489225 -0.001013831 -0.00054311 -0.000972909 13.441816995 0.002226199 -0.000567803 0.002209599 13.443966208" Properties=species:S:1:pos:R:3:forces:R:3 stress="-0.005611466228680099 -7.240150586024579e-06 -2.2594263035697395e-06 -7.240150586024579e-06 -0.00559589366341102 1.4605131354566824e-06 -2.2594263035697395e-06 1.4605131354566824e-06 -0.005612427421085485" free_energy=-965.50110548 energy=-965.50110548 pbc="T T T"
Si       3.90846000       1.77540000       6.01404000      -0.00040800      -0.00027500       0.00070600
Si      10.63890000       8.49686000      12.73691000      -0.00003700       0.00395100       0.00244100
Si       2.86024000       4.80175000      12.73775000       0.00078400      -0.00084700      -0.00045300
Si       9.59131000      11.52107000       6.01662000      -0.00135600      -0.00232400       0.00025600
Si       3.90783000      11.52305000       7.54161000      -0.00093400       0.00036400      -0.00018400
Si      10.63983000       4.80055000       0.81821000      -0.00112100       0.00017000       0.00120700
Si       2.85938000       8.49607000       0.81683000      -0.00059700       0.00096200       0.00094200
Si       9.59087000       1.77577000       7.53741000      -0.00028900      -0.00177900       0.00185500
Si       5.98845000       3.81501000       1.90032000       0.00045400       0.00058500       0.00145600
Si      12.71890000      10.53647000       8.62326000       0.00332800       0.00249800      -0.00158500
Si       1.86344000       5.88711000       3.93940000      -0.00006900       0.00231600       0.00157800
Si       8.59393000      12.60867000      10.66226000      -0.00022800      -0.00057700       0.00058100
Si       0.78112000       2.76120000       8.62447000       0.00125500      -0.00330000      -0.00218100
Si       7.51216000       9.48048000       1.90334000       0.00065900      -0.00055900      -0.00034800
Si       4.90674000      12.60635000       2.89542000      -0.00078200      -0.00051400       0.00075300
Si      11.63819000       5.88602000       9.61605000       0.00060800       0.00057700      -0.00189100
Si      12.72041000       2.76051000       4.93217000       0.00160700      -0.00095200       0.00135300
Si       5.98839000       9.48302000      11.65559000       0.00111500       0.00075300      -0.00066400
Si      11.63769000       7.41031000       3.93893000      -0.00227400       0.00204600       0.00051800
Si       4.90666000       0.69105000      10.66004000      -0.00205200      -0.00153100      -0.00314700
Si       7.51309000       3.81627000      11.65220000      -0.00055600      -0.00092900      -0.00148200
Si       0.78163000      10.53654000       4.93167000       0.00065300       0.00123400       0.00059600
Si       8.59506000       0.68937000       2.89286000      -0.00146600      -0.00321000       0.00142100
Si       1.86300000       7.41182000       9.61630000       0.00064700       0.00150900      -0.00182400
Si       3.90801000       5.88513000       1.90194000      -0.00039000       0.00417600       0.00102200
Si      10.63851000      12.60668000       8.62480000       0.00012300       0.00187400       0.00086100
Si       2.85977000       0.68888000       8.62412000      -0.00105600      -0.00219400      -0.00032100
Si       9.59083000       7.40814000       1.90300000      -0.00370600       0.00192100       0.00126900
Si       3.90767000       7.41280000      11.65338000      -0.00061200       0.00120700      -0.00013800
Si      10.63973000       0.69028000       4.92997000      -0.00163200      -0.00337200       0.00137100
Si       2.86019000      12.60840000       4.93108000       0.00141200      -0.00013800      -0.00088500
Si       9.59165000       5.88809000      11.65165000       0.00062400       0.00151200      -0.00011000
Si       1.86340000       3.81242000       6.01611000      -0.00014200       0.00099700       0.00089200
Si       8.59388000      10.53392000      12.73898000      -0.00114000       0.00300100       0.00067500
Si       5.98893000       1.77376000       3.94317000       0.00022100      -0.00199300       0.00140300
Si      12.71940000       8.49519000      10.66612000       0.00171700       0.00200400       0.00081200
Si       4.90700000       2.76656000      12.73585000      -0.00013200      -0.00239400      -0.00060600
Si      11.63803000       9.48579000       6.01484000      -0.00211800       0.00115500      -0.00107700
Si       0.78032000       8.49536000       2.88915000       0.00117800       0.00130800      -0.00071000
Si       7.51183000       1.77505000       9.60971000       0.00032500      -0.00182600      -0.00122600
Si       8.59487000       2.76401000       0.81664000      -0.00027500      -0.00204000       0.00177300
Si       1.86286000       9.48647000       7.54007000       0.00060300       0.00096400      -0.00006000
Si       7.51271000      11.52204000       3.94487000      -0.00061900      -0.00108500       0.00039600
Si       0.78166000       4.80272000      10.66603000       0.00061900      -0.00189400      -0.00258700
Si      11.63832000       3.81108000       7.54053000      -0.00073100      -0.00213800       0.00072600
Si       4.90685000      10.53136000       0.81993000       0.00003100       0.00045100       0.00180800
Si      12.72010000       4.80194000       2.88995000       0.00180300      -0.00032100      -0.00012100
Si       5.98808000      11.52447000       9.61336000       0.00259300      -0.00049000      -0.00267400
O        5.42949000       1.61987000       5.46181000       0.00092600       0.00082100       0.00057200
O       12.15995000       8.34136000      12.18474000       0.00122200       0.00066600       0.00058000
O        1.33992000       4.95794000      12.18464000      -0.00052100      -0.00012500       0.00161300
O        8.07098000      11.67728000       5.46351000      -0.00035800      -0.00021400       0.00114100
O       12.16011000       4.95706000       1.37179000       0.00147800      -0.00010900      -0.00153500
O        5.42811000      11.67958000       8.09515000       0.00232600      -0.00050300      -0.00064100
O        1.33913000       8.34014000       1.37062000      -0.00068300       0.00059400      -0.00015700
O        8.07062000       1.61980000       8.09119000      -0.00024700       0.00059900      -0.00039400
O        5.42916000       5.33353000       1.74516000       0.00136400      -0.00000600       0.00081600
O       12.15966000      12.05503000       8.46805000       0.00114600      -0.00044900       0.00082000
O        1.70281000       5.33097000       5.45852000      -0.00027000       0.00099300       0.00045000
O        8.43328000      12.05252000      12.18137000      -0.00017200      -0.00045600       0.00118200
O        1.33947000       1.24249000       8.46829000      -0.00178100       0.00139400       0.00019300
O        8.07048000       7.96182000       1.74718000       0.00081200      -0.00110700       0.00022800
O        5.06832000      12.05025000       1.37647000       0.00056700      -0.00106700      -0.00197200
O       11.79977000       5.32991000       8.09704000       0.00057000       0.00133100       0.00020200
O       12.16051000       1.24230000       5.08702000       0.00208600       0.00030800      -0.00008700
O        5.42848000       7.96484000      11.81042000       0.00106500      -0.00080200      -0.00005300
O        5.06895000       1.24811000      12.17848000       0.00037900       0.00184300       0.00355000
O       11.79995000       7.96741000       5.45748000       0.00036800      -0.00169900      -0.00055900
O        1.33984000      12.05528000       5.08710000      -0.00154100       0.00032300      -0.00012300
O        8.07127000       5.33498000      11.80762000      -0.00023200       0.00183300      -0.00002900
O        8.43354000       1.24531000       1.37386000       0.00039900       0.00234400      -0.00252200
O        1.70149000       7.96784000       8.09723000       0.00045100      -0.00077500       0.00069100
O        5.71153000       3.28723000       3.41431000       0.00052500       0.00299500       0.00026500
O       12.44207000      10.00876000      10.13719000       0.00045800      -0.00099600       0.00389500
O        7.79108000      10.00836000       3.41693000      -0.00090000      -0.00044800      -0.00002700
O        1.06007000       3.28902000      10.13800000      -0.00086300       0.00233400       0.00281400
O        7.79000000       3.28849000      10.13822000      -0.00050000       0.00210200       0.00144800
O        1.05854000      10.00885000       3.41773000      -0.00073700      -0.00094900      -0.00170700
O       12.44285000       3.28843000       3.41857000      -0.00099300      -0.00054900      -0.00243900
O        5.71086000      10.01096000      10.14193000      -0.00066900      -0.00173000      -0.00040900
O        3.37864000       3.28883000       5.73718000       0.00069700       0.00130400       0.00016300
O       10.10907000      10.01037000      12.46003000       0.00328600      -0.00158400       0.00028700
O        3.37870000       5.60858000       3.41569000       0.00101800       0.00015800       0.00084200
O       10.10920000      12.33008000      10.13854000       0.00049000       0.00027500       0.00129900
O        3.39197000       3.29001000      12.45573000      -0.00205700      -0.00018300       0.00149100
O       10.12294000      10.00927000       5.73472000       0.00030200      -0.00113700       0.00162100
O        3.37812000       7.69101000      10.14009000       0.00036100      -0.00059600      -0.00109900
O       10.11015000       0.96847000       3.41671000       0.00049500      -0.00033300      -0.00139400
O       10.12272000       3.28779000       7.81863000      -0.00061000       0.00079500      -0.00138100
O        3.39128000      10.00812000       1.09807000      -0.00182100      -0.00052800      -0.00124800
O       10.12215000       7.68803000       3.41549000       0.00042600      -0.00048200       0.00104600
O        3.39113000       0.96878000      10.13657000       0.00081300      -0.00033300       0.00168000
O        3.37811000      10.00983000       7.81975000      -0.00024000      -0.00207300      -0.00056600
O       10.11008000       3.28733000       1.09633000       0.00088200      -0.00074800      -0.00056300
O        3.39170000      12.32689000       3.41920000      -0.00045100       0.00071300      -0.00073500
O       10.12318000       5.60661000      10.13979000      -0.00177500       0.00037400      -0.00066600
O        3.87957000       1.45458000       7.60273000       0.00038300       0.00133700       0.00092400
O       10.61059000       8.17389000       0.88166000       0.00100000       0.00168700      -0.00046300
O        2.88752000       5.11581000       0.88361000      -0.00041400      -0.00049700      -0.00049600
O        9.61802000      11.83740000       7.60644000       0.00009900      -0.00020800       0.00006800
O        3.88050000      11.84337000       5.95275000      -0.00002300      -0.00003200      -0.00229300
O       10.61193000       5.12306000      12.67334000      -0.00003200       0.00011000      -0.00285100
O        2.88577000       8.18073000      12.67141000       0.00084300      -0.00176700      -0.00144300
O        9.61781000       1.45814000       5.94805000       0.00101000      -0.00166000      -0.00175300
O        7.57748000       3.79135000       1.57895000       0.00130400       0.00033400       0.00088900
O        0.84551000      10.51387000       8.30234000      -0.00113400       0.00023500       0.00144600
O        1.54224000       7.47605000       3.91435000       0.00006300      -0.00090600       0.00029400
O        8.27374000       0.75573000      10.63497000      -0.00080900       0.00180000      -0.00038300
O       12.65394000       2.78358000       8.30500000      -0.00201000       0.00022300      -0.00026700
O        5.92248000       9.50388000       1.58440000      -0.00145700       0.00007000      -0.00047500
O        5.22600000       0.75403000       2.91882000       0.00101100       0.00187200       0.00080400
O       11.95652000       7.47554000       9.64174000      -0.00013700      -0.00036400      -0.00018400
O        0.84719000       2.78447000       5.25295000      -0.00161400      -0.00062300      -0.00225700
O        7.57765000       9.50599000      11.97583000      -0.00175700      -0.00100100      -0.00237300
O       11.95786000       5.82117000       3.91516000       0.00033800      -0.00258000      -0.00080200
O        5.22582000      12.54364000      10.63850000      -0.00092000       0.00085700       0.00042500
O        5.92383000       3.79375000      11.97293000       0.00027200       0.00076900      -0.00022400
O       12.65489000      10.51299000       5.25191000      -0.00084000       0.00040300       0.00009400
O        8.27488000      12.54172000       2.92015000       0.00106000       0.00305000      -0.00087100
O        1.54387000       5.82247000       9.64129000      -0.00094000      -0.00231200       0.00066100
O        5.22545000       2.78982000       0.88147000       0.00028300       0.00005500       0.00128700
O       11.95590000       9.51129000       7.60441000       0.00025600      -0.00017200       0.00135600
O        1.54229000       3.78722000       7.60507000      -0.00057200      -0.00073000       0.00016900
O        8.27334000      10.50653000       0.88396000      -0.00090100      -0.00115700       0.00078600
O        8.27595000       2.79111000      12.67103000      -0.00071500       0.00060300      -0.00128400
O        1.54454000       9.51137000       5.95045000      -0.00058600       0.00064400      -0.00030500
O       11.95811000       3.78561000       5.95143000       0.00043100      -0.00041700      -0.00249200
O        5.22606000      10.50814000      12.67482000       0.00078400      -0.00072700      -0.00315100
O        2.88810000       0.75616000       5.24575000       0.00097700       0.00137700       0.00025900
O        9.61860000       7.47771000      11.96864000      -0.00077000      -0.00222900      -0.00152900
O        0.84698000       5.12308000       2.91236000      -0.00081500      -0.00092600      -0.00037300
O        7.57746000      11.84460000       9.63521000      -0.00027600      -0.00036800       0.00030700
O        3.88009000       5.82397000      11.97308000      -0.00025800      -0.00361900       0.00055400
O       10.61116000      12.54315000       5.25193000       0.00141400       0.00216500      -0.00161300
O        7.57803000       1.45297000       3.91967000       0.00084500       0.00052500       0.00032800
O        0.84604000       8.17541000      10.64311000      -0.00084600       0.00113300       0.00118300
O        3.87912000       7.47382000       1.58121000       0.00077800      -0.00195500       0.00266900
O       10.61064000       0.75350000       8.30189000      -0.00053800       0.00135900       0.00119500
O       12.65339000       8.17398000       2.91092000      -0.00143200      -0.00010800      -0.00012100
O        5.92239000       1.45463000       9.63196000      -0.00059700       0.00008900       0.00009900
O        2.88557000      12.54126000       8.30881000       0.00104800       0.00128300      -0.00017200
O        9.61757000       5.81880000       1.58545000       0.00173500      -0.00259100      -0.00137800
O        5.92331000      11.84222000       3.92206000      -0.00043000       0.00007700       0.00012400
O       12.65476000       5.12186000      10.64264000      -0.00023800      -0.00007900       0.00065300
