144
Lattice="14.831606342 0.000607838 0.000213864 0.000599816 14.88863013 -2.135e-06 0.000212478 -1.807e-06 14.903774094" Properties=species:S:1:pos:R:3:forces:R:3 stress="-0.0024852565867624476 2.153320648429724e-06 4.381539406370047e-06 2.153320648429724e-06 -0.002500354797337959 -2.927267780039248e-06 4.381539406370047e-06 -2.927267780039248e-06 -0.002503787627357195" free_energy=-965.37137724 energy=-965.37137724 pbc="T T T"
Si       3.53142000       1.52969000       5.90091000      -0.00127700       0.00004500       0.00036100
Si      10.94764000       8.97434000      13.35290000      -0.00105400      -0.00050800       0.00077500
Si       3.52650000       5.87765000      13.35242000       0.00031400       0.00073300      -0.00006800
Si      10.94248000      13.32225000       5.90068000      -0.00014900       0.00079400      -0.00090500
Si       3.53210000      13.31801000       8.99542000       0.00021900      -0.00037100      -0.00117600
Si      10.94746000       5.87404000       1.54362000       0.00046300      -0.00060400      -0.00092300
Si       3.52359000       8.97485000       1.54611000       0.00048800       0.00033600      -0.00110100
Si      10.93917000       1.53081000       8.99812000       0.00018300       0.00073900      -0.00105600
Si       5.68020000       3.69086000       1.54410000       0.00006200      -0.00055600      -0.00025200
Si      13.09642000      11.13547000       8.99610000       0.00001200      -0.00108200      -0.00034700
Si       1.37255000       5.87641000       3.72950000      -0.00131200      -0.00097700       0.00177400
Si       8.78880000      13.32103000      11.18152000      -0.00134000      -0.00060600       0.00187400
Si       1.36900000       3.70626000       8.99788000       0.00087200       0.00082900      -0.00151500
Si       8.78499000      11.15103000       1.54618000       0.00084400       0.00075300      -0.00065900
Si       5.68156000      13.32102000       3.71403000       0.00003800       0.00000700       0.00002100
Si      13.09723000       5.87698000      11.16601000      -0.00055300      -0.00017900       0.00029800
Si      13.09855000       3.70862000       5.89828000       0.00061500       0.00094300      -0.00097900
Si       5.68319000      11.15266000      13.35005000      -0.00002200       0.00048500      -0.00024800
Si      13.09473000       8.97488000       3.73150000      -0.00101800      -0.00130500       0.00027600
Si       5.67875000       1.53026000      11.18329000      -0.00092700      -0.00061900       0.00061100
Si       8.78962000       3.68982000      13.35409000       0.00065200       0.00008700       0.00072200
Si       1.37400000      11.13381000       5.90209000       0.00068400      -0.00004000       0.00029300
Si       8.78944000       1.52807000       3.71353000       0.00141900      -0.00019600      -0.00055000
Si       1.37405000       8.97203000      11.16528000       0.00159300      -0.00038300      -0.00015800
Si       3.52705000       5.87844000       1.54526000      -0.00136200      -0.00019500      -0.00049700
Si      10.94325000      13.32302000       8.99728000      -0.00145800       0.00018200      -0.00071400
Si       3.53046000       1.52922000       8.99763000      -0.00012500      -0.00001800      -0.00050900
Si      10.94639000       8.97389000       1.54586000      -0.00005100      -0.00057500       0.00001000
Si       3.52537000       8.97337000      13.34950000       0.00143800       0.00006600      -0.00083200
Si      10.94076000       1.52933000       5.89775000       0.00140100       0.00038400      -0.00145700
Si       3.53131000      13.31924000       5.90208000      -0.00023500       0.00083500       0.00025600
Si      10.94691000       5.87526000      13.35405000      -0.00055700       0.00033600       0.00085700
Si       1.36986000       3.70765000       5.89932000      -0.00026400       0.00050000       0.00003300
Si       8.78607000      11.15228000      13.35134000      -0.00040100       0.00016800       0.00062900
Si       5.67917000       1.53006000       3.71379000       0.00014800      -0.00020900       0.00075700
Si      13.09538000       8.97462000      11.16575000       0.00023000      -0.00047600       0.00093400
Si       5.68010000       3.68974000      13.35427000      -0.00037000      -0.00035300      -0.00081700
Si      13.09608000      11.13435000       5.90249000      -0.00069400      -0.00114100      -0.00123800
Si       1.37299000       8.97401000       3.72953000      -0.00061300      -0.00086100       0.00107400
Si       8.78862000       1.53000000      11.18153000      -0.00057200      -0.00021700       0.00153600
Si       8.79005000       3.68902000       1.54299000       0.00109800      -0.00075200       0.00004900
Si       1.37466000      11.13301000       8.99475000       0.00098300      -0.00102000       0.00006700
Si       8.78820000      13.32003000       3.71527000       0.00074700       0.00070300      -0.00087400
Si       1.37222000       5.87535000      11.16702000       0.00081800       0.00117200      -0.00060000
Si      13.09740000       3.70904000       8.99851000       0.00076000       0.00151200      -0.00169600
Si       5.68172000      11.15322000       1.54655000       0.00074600       0.00146200      -0.00124500
Si      13.09801000       5.87611000       3.73009000      -0.00068400      -0.00095900       0.00024800
Si       5.68264000      13.32013000      11.18189000      -0.00103400      -0.00093800       0.00056100
O        4.81391000       1.95031000       5.01231000       0.00110700      -0.00162200      -0.00026000
O       12.23017000       9.39485000      12.46431000       0.00134500      -0.00157400      -0.00019200
O        2.24909000       5.45325000      12.45761000       0.00064300       0.00215400      -0.00036100
O        9.66499000      12.89792000       5.00591000       0.00094600       0.00214800       0.00018600
O       12.21960000       5.44524000       2.44355000      -0.00076200       0.00027400      -0.00030900
O        4.80421000      12.88921000       9.89537000      -0.00067600       0.00032000      -0.00031500
O        2.23622000       9.39295000       2.42908000       0.00000400      -0.00147000      -0.00073300
O        9.65181000       1.94899000       9.88109000       0.00039200      -0.00120400      -0.00113900
O        4.81460000       4.99215000       1.95459000      -0.00082400      -0.00023600      -0.00019700
O       12.23083000      12.43677000       9.40659000      -0.00086400      -0.00024500      -0.00017900
O        1.80065000       4.98519000       5.00803000       0.00079700       0.00105400      -0.00084200
O        9.21684000      12.42986000      12.46010000       0.00085300       0.00116100      -0.00108900
O        2.24574000       2.41514000       9.41716000       0.00084200      -0.00075500       0.00007700
O        9.66167000       9.85981000       1.96541000       0.00062200      -0.00044200       0.00002800
O        5.25160000      12.43335000       2.43400000      -0.00072600       0.00072100      -0.00006200
O       12.66749000       4.98923000       9.88597000      -0.00092400       0.00059100       0.00000700
O       12.21786000       2.42287000       5.47127000      -0.00056800      -0.00074000       0.00049700
O        4.80246000       9.86692000      12.92303000      -0.00042000      -0.00060800       0.00047500
O        5.23587000       2.42123000      12.45691000      -0.00140500      -0.00046700      -0.00008200
O       12.65185000       9.86582000       5.00513000      -0.00140800       0.00011800       0.00043300
O        2.24154000      12.43491000       5.49475000      -0.00104800      -0.00015200       0.00082300
O        9.65716000       4.99091000      12.94672000      -0.00117600      -0.00010700       0.00082200
O        9.23580000       2.42374000       2.44429000       0.00150700       0.00096200       0.00170800
O        1.82040000       9.86773000       9.89606000       0.00160000       0.00077100       0.00122100
O        5.23358000       2.42441000       2.44336000      -0.00159400       0.00017300       0.00030500
O       12.64980000       9.86901000       9.89535000      -0.00162100       0.00060600       0.00006400
O        9.21867000      12.42621000       2.43949000       0.00041000      -0.00039100       0.00047000
O        1.80253000       4.98145000       9.89125000       0.00038400      -0.00004700       0.00054800
O        9.23436000       2.42509000      12.45144000       0.00156500      -0.00122800      -0.00088100
O        1.81876000       9.86909000       4.99942000       0.00147500      -0.00071900      -0.00041800
O       12.66979000       4.98979000       5.01166000      -0.00124100       0.00040100      -0.00016400
O        5.25443000      12.43384000      12.46349000      -0.00122300       0.00076900      -0.00080900
O        2.24978000       2.41904000       5.47884000       0.00157700      -0.00040000      -0.00004200
O        9.66604000       9.86372000      12.93081000       0.00121700      -0.00004500      -0.00011000
O        2.25141000       5.45116000       2.44135000       0.00137700       0.00162700      -0.00021800
O        9.66765000      12.89570000       9.89339000       0.00142500       0.00163000      -0.00034600
O        4.81188000       4.98870000      12.94196000      -0.00024900      -0.00065400       0.00068600
O       12.22784000      12.43330000       5.49018000      -0.00060300      -0.00089100       0.00085800
O        2.23791000       9.38926000      12.46572000       0.00002000      -0.00171700      -0.00008500
O        9.65331000       1.94526000       5.01396000       0.00031500      -0.00163300       0.00037300
O       12.21688000       2.42315000       9.42471000      -0.00049400      -0.00118500       0.00041500
O        4.80125000       9.86726000       1.97267000      -0.00048100      -0.00092700       0.00024300
O       12.22671000       9.39822000       2.43587000      -0.00006500      -0.00024200       0.00007000
O        4.81075000       1.95360000       9.88764000       0.00001000      -0.00030600       0.00008800
O        2.24139000      12.43464000       9.40205000      -0.00081100       0.00022200      -0.00169100
O        9.65679000       4.99065000       1.95030000      -0.00104700       0.00011700      -0.00177200
O        4.80408000      12.89288000       5.00199000      -0.00035400       0.00060600      -0.00118900
O       12.21963000       5.44888000      12.45392000       0.00040200       0.00056100      -0.00166300
O        3.93276000       1.78524000       7.44938000       0.00023800      -0.00007400       0.00061000
O       11.34891000       9.22992000      14.90140000       0.00032700      -0.00010200       0.00010300
O        3.11703000       5.63052000      14.90086000      -0.00022800       0.00062500       0.00100600
O       10.53302000      13.07511000       7.44911000      -0.00023200       0.00054700       0.00170800
O        3.94622000      13.06836000       7.44856000       0.00052800       0.00019300      -0.00052300
O       11.36180000       5.62438000      14.90054000       0.00061600       0.00017100      -0.00081100
O        3.12876000       9.22675000      14.89934000       0.00001600       0.00033200       0.00139300
O       10.54413000       1.78273000       7.44759000       0.00015000       0.00031600       0.00177100
O        7.23551000       4.06458000       1.79676000      -0.00200700      -0.00104600       0.00034100
O       14.65173000      11.50919000       9.24876000      -0.00204900      -0.00109800       0.00026900
O        1.63461000       7.42510000       4.12792000      -0.00063500       0.00083500       0.00104700
O        9.05092000      14.86973000      11.57988000      -0.00061100       0.00005500       0.00072300
O       14.64875000       3.31906000       9.25245000      -0.00041200       0.00081700      -0.00008500
O        7.23308000      10.76346000       1.80065000       0.00003500       0.00089400      -0.00017500
O        5.41880000      14.86970000       3.31683000       0.00012400       0.00065500      -0.00060000
O       12.83441000       7.42565000      10.76875000       0.00021600       0.00069600      -0.00051700
O       14.65003000       3.31806000       5.64500000       0.00026300       0.00113400       0.00071800
O        7.23465000      10.76205000      13.09673000       0.00082600       0.00124900       0.00090900
O       12.83411000       7.42504000       4.12478000       0.00010800       0.00100000      -0.00010100
O        5.41872000      14.86907000      11.57656000       0.00005500       0.00058300      -0.00013000
O        7.23492000       4.06631000      13.10188000      -0.00089200      -0.00205100      -0.00084700
O       14.65090000      11.51088000       5.65009000      -0.00064700      -0.00186200      -0.00080000
O        9.05068000      14.86796000       3.31370000       0.00006300       0.00013800      -0.00138700
O        1.63471000       7.42328000      10.76542000       0.00045600      -0.00013200      -0.00190200
O        5.42096000       3.28362000      14.90124000       0.00034400      -0.00089500       0.00031300
O       12.83695000      10.72824000       7.44946000       0.00037900      -0.00083000       0.00082100
O        1.62523000       4.10734000       7.44887000       0.00068700       0.00046300       0.00060800
O        9.04138000      11.55193000      14.90091000       0.00077200       0.00057000       0.00025200
O        9.04790000       3.27866000      14.90023000      -0.00000500      -0.00110300      -0.00039800
O        1.63228000      10.72264000       7.44822000      -0.00002300      -0.00108300      -0.00015900
O       12.84036000       4.10289000       7.44823000      -0.00141800      -0.00000300       0.00173700
O        5.42501000      11.54695000      14.90001000      -0.00143900       0.00011400       0.00111300
O        3.13181000      14.86876000       5.64854000      -0.00047700       0.00052100       0.00074300
O       10.54740000       7.42477000      13.10055000      -0.00054200       0.00103800       0.00064600
O       14.65112000       5.62878000       3.34181000       0.00064300      -0.00040400       0.00008000
O        7.23575000      13.07282000      10.79361000       0.00062900      -0.00041700       0.00005400
O        3.93040000       7.42544000      13.09449000       0.00173100      -0.00037300       0.00245800
O       11.34640000      14.87004000       5.64277000       0.00167000      -0.00038900       0.00236600
O        7.23457000       1.78292000       4.08553000      -0.00099000       0.00019600      -0.00090100
O       14.65079000       9.22745000      11.53748000      -0.00084100      -0.00008900      -0.00085200
O        3.92739000       7.42702000       1.80304000       0.00092800       0.00013500      -0.00033200
O       11.34353000      14.87162000       9.25507000       0.00082100      -0.00033900      -0.00039400
O       14.64952000       9.22872000       3.35803000       0.00025000       0.00081100       0.00148700
O        7.23354000       1.78408000      10.80983000       0.00001700       0.00073400       0.00147400
O        3.13433000      14.86759000       9.25033000      -0.00012100       0.00068700      -0.00073300
O       10.54967000       7.42361000       1.79854000      -0.00007200       0.00118400      -0.00083400
O        7.23470000      13.07260000       4.10144000      -0.00014600       0.00034900      -0.00049200
O       14.65034000       5.62863000      11.55357000      -0.00011200       0.00034000      -0.00062200
